# vtk DataFile Version 3.0
Monodomain FEM
ASCII
DATASET POLYDATA
POINTS 451 float
0.000000e+00 0.000000e+00 0.000000e+00
6.667000e-03 0.000000e+00 0.000000e+00
1.333300e-02 0.000000e+00 0.000000e+00
2.000000e-02 0.000000e+00 0.000000e+00
2.666700e-02 0.000000e+00 0.000000e+00
3.333300e-02 0.000000e+00 0.000000e+00
4.000000e-02 0.000000e+00 0.000000e+00
4.666700e-02 0.000000e+00 0.000000e+00
5.333300e-02 0.000000e+00 0.000000e+00
6.000000e-02 0.000000e+00 0.000000e+00
6.666700e-02 0.000000e+00 0.000000e+00
7.333300e-02 0.000000e+00 0.000000e+00
8.000000e-02 0.000000e+00 0.000000e+00
8.666700e-02 0.000000e+00 0.000000e+00
9.333300e-02 0.000000e+00 0.000000e+00
1.000000e-01 0.000000e+00 0.000000e+00
1.066670e-01 0.000000e+00 0.000000e+00
1.133330e-01 0.000000e+00 0.000000e+00
1.200000e-01 0.000000e+00 0.000000e+00
1.266670e-01 0.000000e+00 0.000000e+00
1.333330e-01 0.000000e+00 0.000000e+00
1.400000e-01 0.000000e+00 0.000000e+00
1.466670e-01 0.000000e+00 0.000000e+00
1.533330e-01 0.000000e+00 0.000000e+00
1.600000e-01 0.000000e+00 0.000000e+00
1.666670e-01 0.000000e+00 0.000000e+00
1.733330e-01 0.000000e+00 0.000000e+00
1.800000e-01 0.000000e+00 0.000000e+00
1.866670e-01 0.000000e+00 0.000000e+00
1.933330e-01 0.000000e+00 0.000000e+00
2.000000e-01 0.000000e+00 0.000000e+00
2.066670e-01 0.000000e+00 0.000000e+00
2.133330e-01 0.000000e+00 0.000000e+00
2.200000e-01 0.000000e+00 0.000000e+00
2.266670e-01 0.000000e+00 0.000000e+00
2.333330e-01 0.000000e+00 0.000000e+00
2.400000e-01 0.000000e+00 0.000000e+00
2.466670e-01 0.000000e+00 0.000000e+00
2.533330e-01 0.000000e+00 0.000000e+00
2.600000e-01 0.000000e+00 0.000000e+00
2.666670e-01 0.000000e+00 0.000000e+00
2.733330e-01 0.000000e+00 0.000000e+00
2.800000e-01 0.000000e+00 0.000000e+00
2.866670e-01 0.000000e+00 0.000000e+00
2.933330e-01 0.000000e+00 0.000000e+00
3.000000e-01 0.000000e+00 0.000000e+00
3.066670e-01 0.000000e+00 0.000000e+00
3.133330e-01 0.000000e+00 0.000000e+00
3.200000e-01 0.000000e+00 0.000000e+00
3.266670e-01 0.000000e+00 0.000000e+00
3.333330e-01 0.000000e+00 0.000000e+00
3.400000e-01 0.000000e+00 0.000000e+00
3.466670e-01 0.000000e+00 0.000000e+00
3.533330e-01 0.000000e+00 0.000000e+00
3.600000e-01 0.000000e+00 0.000000e+00
3.666670e-01 0.000000e+00 0.000000e+00
3.733330e-01 0.000000e+00 0.000000e+00
3.800000e-01 0.000000e+00 0.000000e+00
3.866670e-01 0.000000e+00 0.000000e+00
3.933330e-01 0.000000e+00 0.000000e+00
4.000000e-01 0.000000e+00 0.000000e+00
4.066670e-01 0.000000e+00 0.000000e+00
4.133330e-01 0.000000e+00 0.000000e+00
4.200000e-01 0.000000e+00 0.000000e+00
4.266670e-01 0.000000e+00 0.000000e+00
4.333330e-01 0.000000e+00 0.000000e+00
4.400000e-01 0.000000e+00 0.000000e+00
4.466670e-01 0.000000e+00 0.000000e+00
4.533330e-01 0.000000e+00 0.000000e+00
4.600000e-01 0.000000e+00 0.000000e+00
4.666670e-01 0.000000e+00 0.000000e+00
4.733330e-01 0.000000e+00 0.000000e+00
4.800000e-01 0.000000e+00 0.000000e+00
4.866670e-01 0.000000e+00 0.000000e+00
4.933330e-01 0.000000e+00 0.000000e+00
5.000000e-01 0.000000e+00 0.000000e+00
5.066670e-01 0.000000e+00 0.000000e+00
5.133330e-01 0.000000e+00 0.000000e+00
5.200000e-01 0.000000e+00 0.000000e+00
5.266670e-01 0.000000e+00 0.000000e+00
5.333330e-01 0.000000e+00 0.000000e+00
5.400000e-01 0.000000e+00 0.000000e+00
5.466670e-01 0.000000e+00 0.000000e+00
5.533330e-01 0.000000e+00 0.000000e+00
5.600000e-01 0.000000e+00 0.000000e+00
5.666670e-01 0.000000e+00 0.000000e+00
5.733330e-01 0.000000e+00 0.000000e+00
5.800000e-01 0.000000e+00 0.000000e+00
5.866670e-01 0.000000e+00 0.000000e+00
5.933330e-01 0.000000e+00 0.000000e+00
6.000000e-01 0.000000e+00 0.000000e+00
6.066670e-01 0.000000e+00 0.000000e+00
6.133330e-01 0.000000e+00 0.000000e+00
6.200000e-01 0.000000e+00 0.000000e+00
6.266670e-01 0.000000e+00 0.000000e+00
6.333330e-01 0.000000e+00 0.000000e+00
6.400000e-01 0.000000e+00 0.000000e+00
6.466670e-01 0.000000e+00 0.000000e+00
6.533330e-01 0.000000e+00 0.000000e+00
6.600000e-01 0.000000e+00 0.000000e+00
6.666670e-01 0.000000e+00 0.000000e+00
6.733330e-01 0.000000e+00 0.000000e+00
6.800000e-01 0.000000e+00 0.000000e+00
6.866670e-01 0.000000e+00 0.000000e+00
6.933330e-01 0.000000e+00 0.000000e+00
7.000000e-01 0.000000e+00 0.000000e+00
7.066670e-01 0.000000e+00 0.000000e+00
7.133330e-01 0.000000e+00 0.000000e+00
7.200000e-01 0.000000e+00 0.000000e+00
7.266670e-01 0.000000e+00 0.000000e+00
7.333330e-01 0.000000e+00 0.000000e+00
7.400000e-01 0.000000e+00 0.000000e+00
7.466670e-01 0.000000e+00 0.000000e+00
7.533330e-01 0.000000e+00 0.000000e+00
7.600000e-01 0.000000e+00 0.000000e+00
7.666670e-01 0.000000e+00 0.000000e+00
7.733330e-01 0.000000e+00 0.000000e+00
7.800000e-01 0.000000e+00 0.000000e+00
7.866670e-01 0.000000e+00 0.000000e+00
7.933330e-01 0.000000e+00 0.000000e+00
8.000000e-01 0.000000e+00 0.000000e+00
8.066670e-01 0.000000e+00 0.000000e+00
8.133330e-01 0.000000e+00 0.000000e+00
8.200000e-01 0.000000e+00 0.000000e+00
8.266670e-01 0.000000e+00 0.000000e+00
8.333330e-01 0.000000e+00 0.000000e+00
8.400000e-01 0.000000e+00 0.000000e+00
8.466670e-01 0.000000e+00 0.000000e+00
8.533330e-01 0.000000e+00 0.000000e+00
8.600000e-01 0.000000e+00 0.000000e+00
8.666670e-01 0.000000e+00 0.000000e+00
8.733330e-01 0.000000e+00 0.000000e+00
8.800000e-01 0.000000e+00 0.000000e+00
8.866670e-01 0.000000e+00 0.000000e+00
8.933330e-01 0.000000e+00 0.000000e+00
9.000000e-01 0.000000e+00 0.000000e+00
9.066670e-01 0.000000e+00 0.000000e+00
9.133330e-01 0.000000e+00 0.000000e+00
9.200000e-01 0.000000e+00 0.000000e+00
9.266670e-01 0.000000e+00 0.000000e+00
9.333330e-01 0.000000e+00 0.000000e+00
9.400000e-01 0.000000e+00 0.000000e+00
9.466670e-01 0.000000e+00 0.000000e+00
9.533330e-01 0.000000e+00 0.000000e+00
9.600000e-01 0.000000e+00 0.000000e+00
9.666670e-01 0.000000e+00 0.000000e+00
9.733330e-01 0.000000e+00 0.000000e+00
9.800000e-01 0.000000e+00 0.000000e+00
9.866670e-01 0.000000e+00 0.000000e+00
9.933330e-01 0.000000e+00 0.000000e+00
1.000000e+00 0.000000e+00 0.000000e+00
1.000000e+00 -6.667000e-03 0.000000e+00
1.000000e+00 -1.333300e-02 0.000000e+00
1.000000e+00 -2.000000e-02 0.000000e+00
1.000000e+00 -2.666700e-02 0.000000e+00
1.000000e+00 -3.333300e-02 0.000000e+00
1.000000e+00 -4.000000e-02 0.000000e+00
1.000000e+00 -4.666700e-02 0.000000e+00
1.000000e+00 -5.333300e-02 0.000000e+00
1.000000e+00 -6.000000e-02 0.000000e+00
1.000000e+00 -6.666700e-02 0.000000e+00
1.000000e+00 -7.333300e-02 0.000000e+00
1.000000e+00 -8.000000e-02 0.000000e+00
1.000000e+00 -8.666700e-02 0.000000e+00
1.000000e+00 -9.333300e-02 0.000000e+00
1.000000e+00 -1.000000e-01 0.000000e+00
1.000000e+00 -1.066670e-01 0.000000e+00
1.000000e+00 -1.133330e-01 0.000000e+00
1.000000e+00 -1.200000e-01 0.000000e+00
1.000000e+00 -1.266670e-01 0.000000e+00
1.000000e+00 -1.333330e-01 0.000000e+00
1.000000e+00 -1.400000e-01 0.000000e+00
1.000000e+00 -1.466670e-01 0.000000e+00
1.000000e+00 -1.533330e-01 0.000000e+00
1.000000e+00 -1.600000e-01 0.000000e+00
1.000000e+00 -1.666670e-01 0.000000e+00
1.000000e+00 -1.733330e-01 0.000000e+00
1.000000e+00 -1.800000e-01 0.000000e+00
1.000000e+00 -1.866670e-01 0.000000e+00
1.000000e+00 -1.933330e-01 0.000000e+00
1.000000e+00 -2.000000e-01 0.000000e+00
1.000000e+00 -2.066670e-01 0.000000e+00
1.000000e+00 -2.133330e-01 0.000000e+00
1.000000e+00 -2.200000e-01 0.000000e+00
1.000000e+00 -2.266670e-01 0.000000e+00
1.000000e+00 -2.333330e-01 0.000000e+00
1.000000e+00 -2.400000e-01 0.000000e+00
1.000000e+00 -2.466670e-01 0.000000e+00
1.000000e+00 -2.533330e-01 0.000000e+00
1.000000e+00 -2.600000e-01 0.000000e+00
1.000000e+00 -2.666670e-01 0.000000e+00
1.000000e+00 -2.733330e-01 0.000000e+00
1.000000e+00 -2.800000e-01 0.000000e+00
1.000000e+00 -2.866670e-01 0.000000e+00
1.000000e+00 -2.933330e-01 0.000000e+00
1.000000e+00 -3.000000e-01 0.000000e+00
1.000000e+00 -3.066670e-01 0.000000e+00
1.000000e+00 -3.133330e-01 0.000000e+00
1.000000e+00 -3.200000e-01 0.000000e+00
1.000000e+00 -3.266670e-01 0.000000e+00
1.000000e+00 -3.333330e-01 0.000000e+00
1.000000e+00 -3.400000e-01 0.000000e+00
1.000000e+00 -3.466670e-01 0.000000e+00
1.000000e+00 -3.533330e-01 0.000000e+00
1.000000e+00 -3.600000e-01 0.000000e+00
1.000000e+00 -3.666670e-01 0.000000e+00
1.000000e+00 -3.733330e-01 0.000000e+00
1.000000e+00 -3.800000e-01 0.000000e+00
1.000000e+00 -3.866670e-01 0.000000e+00
1.000000e+00 -3.933330e-01 0.000000e+00
1.000000e+00 -4.000000e-01 0.000000e+00
1.000000e+00 -4.066670e-01 0.000000e+00
1.000000e+00 -4.133330e-01 0.000000e+00
1.000000e+00 -4.200000e-01 0.000000e+00
1.000000e+00 -4.266670e-01 0.000000e+00
1.000000e+00 -4.333330e-01 0.000000e+00
1.000000e+00 -4.400000e-01 0.000000e+00
1.000000e+00 -4.466670e-01 0.000000e+00
1.000000e+00 -4.533330e-01 0.000000e+00
1.000000e+00 -4.600000e-01 0.000000e+00
1.000000e+00 -4.666670e-01 0.000000e+00
1.000000e+00 -4.733330e-01 0.000000e+00
1.000000e+00 -4.800000e-01 0.000000e+00
1.000000e+00 -4.866670e-01 0.000000e+00
1.000000e+00 -4.933330e-01 0.000000e+00
1.000000e+00 -5.000000e-01 0.000000e+00
1.000000e+00 -5.066670e-01 0.000000e+00
1.000000e+00 -5.133330e-01 0.000000e+00
1.000000e+00 -5.200000e-01 0.000000e+00
1.000000e+00 -5.266670e-01 0.000000e+00
1.000000e+00 -5.333330e-01 0.000000e+00
1.000000e+00 -5.400000e-01 0.000000e+00
1.000000e+00 -5.466670e-01 0.000000e+00
1.000000e+00 -5.533330e-01 0.000000e+00
1.000000e+00 -5.600000e-01 0.000000e+00
1.000000e+00 -5.666670e-01 0.000000e+00
1.000000e+00 -5.733330e-01 0.000000e+00
1.000000e+00 -5.800000e-01 0.000000e+00
1.000000e+00 -5.866670e-01 0.000000e+00
1.000000e+00 -5.933330e-01 0.000000e+00
1.000000e+00 -6.000000e-01 0.000000e+00
1.000000e+00 -6.066670e-01 0.000000e+00
1.000000e+00 -6.133330e-01 0.000000e+00
1.000000e+00 -6.200000e-01 0.000000e+00
1.000000e+00 -6.266670e-01 0.000000e+00
1.000000e+00 -6.333330e-01 0.000000e+00
1.000000e+00 -6.400000e-01 0.000000e+00
1.000000e+00 -6.466670e-01 0.000000e+00
1.000000e+00 -6.533330e-01 0.000000e+00
1.000000e+00 -6.600000e-01 0.000000e+00
1.000000e+00 -6.666670e-01 0.000000e+00
1.000000e+00 -6.733330e-01 0.000000e+00
1.000000e+00 -6.800000e-01 0.000000e+00
1.000000e+00 -6.866670e-01 0.000000e+00
1.000000e+00 -6.933330e-01 0.000000e+00
1.000000e+00 -7.000000e-01 0.000000e+00
1.000000e+00 -7.066670e-01 0.000000e+00
1.000000e+00 -7.133330e-01 0.000000e+00
1.000000e+00 -7.200000e-01 0.000000e+00
1.000000e+00 -7.266670e-01 0.000000e+00
1.000000e+00 -7.333330e-01 0.000000e+00
1.000000e+00 -7.400000e-01 0.000000e+00
1.000000e+00 -7.466670e-01 0.000000e+00
1.000000e+00 -7.533330e-01 0.000000e+00
1.000000e+00 -7.600000e-01 0.000000e+00
1.000000e+00 -7.666670e-01 0.000000e+00
1.000000e+00 -7.733330e-01 0.000000e+00
1.000000e+00 -7.800000e-01 0.000000e+00
1.000000e+00 -7.866670e-01 0.000000e+00
1.000000e+00 -7.933330e-01 0.000000e+00
1.000000e+00 -8.000000e-01 0.000000e+00
1.000000e+00 -8.066670e-01 0.000000e+00
1.000000e+00 -8.133330e-01 0.000000e+00
1.000000e+00 -8.200000e-01 0.000000e+00
1.000000e+00 -8.266670e-01 0.000000e+00
1.000000e+00 -8.333330e-01 0.000000e+00
1.000000e+00 -8.400000e-01 0.000000e+00
1.000000e+00 -8.466670e-01 0.000000e+00
1.000000e+00 -8.533330e-01 0.000000e+00
1.000000e+00 -8.600000e-01 0.000000e+00
1.000000e+00 -8.666670e-01 0.000000e+00
1.000000e+00 -8.733330e-01 0.000000e+00
1.000000e+00 -8.800000e-01 0.000000e+00
1.000000e+00 -8.866670e-01 0.000000e+00
1.000000e+00 -8.933330e-01 0.000000e+00
1.000000e+00 -9.000000e-01 0.000000e+00
1.000000e+00 -9.066670e-01 0.000000e+00
1.000000e+00 -9.133330e-01 0.000000e+00
1.000000e+00 -9.200000e-01 0.000000e+00
1.000000e+00 -9.266670e-01 0.000000e+00
1.000000e+00 -9.333330e-01 0.000000e+00
1.000000e+00 -9.400000e-01 0.000000e+00
1.000000e+00 -9.466670e-01 0.000000e+00
1.000000e+00 -9.533330e-01 0.000000e+00
1.000000e+00 -9.600000e-01 0.000000e+00
1.000000e+00 -9.666670e-01 0.000000e+00
1.000000e+00 -9.733330e-01 0.000000e+00
1.000000e+00 -9.800000e-01 0.000000e+00
1.000000e+00 -9.866670e-01 0.000000e+00
1.000000e+00 -9.933330e-01 0.000000e+00
1.000000e+00 -1.000000e+00 0.000000e+00
1.000000e+00 6.667000e-03 0.000000e+00
1.000000e+00 1.333300e-02 0.000000e+00
1.000000e+00 2.000000e-02 0.000000e+00
1.000000e+00 2.666700e-02 0.000000e+00
1.000000e+00 3.333300e-02 0.000000e+00
1.000000e+00 4.000000e-02 0.000000e+00
1.000000e+00 4.666700e-02 0.000000e+00
1.000000e+00 5.333300e-02 0.000000e+00
1.000000e+00 6.000000e-02 0.000000e+00
1.000000e+00 6.666700e-02 0.000000e+00
1.000000e+00 7.333300e-02 0.000000e+00
1.000000e+00 8.000000e-02 0.000000e+00
1.000000e+00 8.666700e-02 0.000000e+00
1.000000e+00 9.333300e-02 0.000000e+00
1.000000e+00 1.000000e-01 0.000000e+00
1.000000e+00 1.066670e-01 0.000000e+00
1.000000e+00 1.133330e-01 0.000000e+00
1.000000e+00 1.200000e-01 0.000000e+00
1.000000e+00 1.266670e-01 0.000000e+00
1.000000e+00 1.333330e-01 0.000000e+00
1.000000e+00 1.400000e-01 0.000000e+00
1.000000e+00 1.466670e-01 0.000000e+00
1.000000e+00 1.533330e-01 0.000000e+00
1.000000e+00 1.600000e-01 0.000000e+00
1.000000e+00 1.666670e-01 0.000000e+00
1.000000e+00 1.733330e-01 0.000000e+00
1.000000e+00 1.800000e-01 0.000000e+00
1.000000e+00 1.866670e-01 0.000000e+00
1.000000e+00 1.933330e-01 0.000000e+00
1.000000e+00 2.000000e-01 0.000000e+00
1.000000e+00 2.066670e-01 0.000000e+00
1.000000e+00 2.133330e-01 0.000000e+00
1.000000e+00 2.200000e-01 0.000000e+00
1.000000e+00 2.266670e-01 0.000000e+00
1.000000e+00 2.333330e-01 0.000000e+00
1.000000e+00 2.400000e-01 0.000000e+00
1.000000e+00 2.466670e-01 0.000000e+00
1.000000e+00 2.533330e-01 0.000000e+00
1.000000e+00 2.600000e-01 0.000000e+00
1.000000e+00 2.666670e-01 0.000000e+00
1.000000e+00 2.733330e-01 0.000000e+00
1.000000e+00 2.800000e-01 0.000000e+00
1.000000e+00 2.866670e-01 0.000000e+00
1.000000e+00 2.933330e-01 0.000000e+00
1.000000e+00 3.000000e-01 0.000000e+00
1.000000e+00 3.066670e-01 0.000000e+00
1.000000e+00 3.133330e-01 0.000000e+00
1.000000e+00 3.200000e-01 0.000000e+00
1.000000e+00 3.266670e-01 0.000000e+00
1.000000e+00 3.333330e-01 0.000000e+00
1.000000e+00 3.400000e-01 0.000000e+00
1.000000e+00 3.466670e-01 0.000000e+00
1.000000e+00 3.533330e-01 0.000000e+00
1.000000e+00 3.600000e-01 0.000000e+00
1.000000e+00 3.666670e-01 0.000000e+00
1.000000e+00 3.733330e-01 0.000000e+00
1.000000e+00 3.800000e-01 0.000000e+00
1.000000e+00 3.866670e-01 0.000000e+00
1.000000e+00 3.933330e-01 0.000000e+00
1.000000e+00 4.000000e-01 0.000000e+00
1.000000e+00 4.066670e-01 0.000000e+00
1.000000e+00 4.133330e-01 0.000000e+00
1.000000e+00 4.200000e-01 0.000000e+00
1.000000e+00 4.266670e-01 0.000000e+00
1.000000e+00 4.333330e-01 0.000000e+00
1.000000e+00 4.400000e-01 0.000000e+00
1.000000e+00 4.466670e-01 0.000000e+00
1.000000e+00 4.533330e-01 0.000000e+00
1.000000e+00 4.600000e-01 0.000000e+00
1.000000e+00 4.666670e-01 0.000000e+00
1.000000e+00 4.733330e-01 0.000000e+00
1.000000e+00 4.800000e-01 0.000000e+00
1.000000e+00 4.866670e-01 0.000000e+00
1.000000e+00 4.933330e-01 0.000000e+00
1.000000e+00 5.000000e-01 0.000000e+00
1.000000e+00 5.066670e-01 0.000000e+00
1.000000e+00 5.133330e-01 0.000000e+00
1.000000e+00 5.200000e-01 0.000000e+00
1.000000e+00 5.266670e-01 0.000000e+00
1.000000e+00 5.333330e-01 0.000000e+00
1.000000e+00 5.400000e-01 0.000000e+00
1.000000e+00 5.466670e-01 0.000000e+00
1.000000e+00 5.533330e-01 0.000000e+00
1.000000e+00 5.600000e-01 0.000000e+00
1.000000e+00 5.666670e-01 0.000000e+00
1.000000e+00 5.733330e-01 0.000000e+00
1.000000e+00 5.800000e-01 0.000000e+00
1.000000e+00 5.866670e-01 0.000000e+00
1.000000e+00 5.933330e-01 0.000000e+00
1.000000e+00 6.000000e-01 0.000000e+00
1.000000e+00 6.066670e-01 0.000000e+00
1.000000e+00 6.133330e-01 0.000000e+00
1.000000e+00 6.200000e-01 0.000000e+00
1.000000e+00 6.266670e-01 0.000000e+00
1.000000e+00 6.333330e-01 0.000000e+00
1.000000e+00 6.400000e-01 0.000000e+00
1.000000e+00 6.466670e-01 0.000000e+00
1.000000e+00 6.533330e-01 0.000000e+00
1.000000e+00 6.600000e-01 0.000000e+00
1.000000e+00 6.666670e-01 0.000000e+00
1.000000e+00 6.733330e-01 0.000000e+00
1.000000e+00 6.800000e-01 0.000000e+00
1.000000e+00 6.866670e-01 0.000000e+00
1.000000e+00 6.933330e-01 0.000000e+00
1.000000e+00 7.000000e-01 0.000000e+00
1.000000e+00 7.066670e-01 0.000000e+00
1.000000e+00 7.133330e-01 0.000000e+00
1.000000e+00 7.200000e-01 0.000000e+00
1.000000e+00 7.266670e-01 0.000000e+00
1.000000e+00 7.333330e-01 0.000000e+00
1.000000e+00 7.400000e-01 0.000000e+00
1.000000e+00 7.466670e-01 0.000000e+00
1.000000e+00 7.533330e-01 0.000000e+00
1.000000e+00 7.600000e-01 0.000000e+00
1.000000e+00 7.666670e-01 0.000000e+00
1.000000e+00 7.733330e-01 0.000000e+00
1.000000e+00 7.800000e-01 0.000000e+00
1.000000e+00 7.866670e-01 0.000000e+00
1.000000e+00 7.933330e-01 0.000000e+00
1.000000e+00 8.000000e-01 0.000000e+00
1.000000e+00 8.066670e-01 0.000000e+00
1.000000e+00 8.133330e-01 0.000000e+00
1.000000e+00 8.200000e-01 0.000000e+00
1.000000e+00 8.266670e-01 0.000000e+00
1.000000e+00 8.333330e-01 0.000000e+00
1.000000e+00 8.400000e-01 0.000000e+00
1.000000e+00 8.466670e-01 0.000000e+00
1.000000e+00 8.533330e-01 0.000000e+00
1.000000e+00 8.600000e-01 0.000000e+00
1.000000e+00 8.666670e-01 0.000000e+00
1.000000e+00 8.733330e-01 0.000000e+00
1.000000e+00 8.800000e-01 0.000000e+00
1.000000e+00 8.866670e-01 0.000000e+00
1.000000e+00 8.933330e-01 0.000000e+00
1.000000e+00 9.000000e-01 0.000000e+00
1.000000e+00 9.066670e-01 0.000000e+00
1.000000e+00 9.133330e-01 0.000000e+00
1.000000e+00 9.200000e-01 0.000000e+00
1.000000e+00 9.266670e-01 0.000000e+00
1.000000e+00 9.333330e-01 0.000000e+00
1.000000e+00 9.400000e-01 0.000000e+00
1.000000e+00 9.466670e-01 0.000000e+00
1.000000e+00 9.533330e-01 0.000000e+00
1.000000e+00 9.600000e-01 0.000000e+00
1.000000e+00 9.666670e-01 0.000000e+00
1.000000e+00 9.733330e-01 0.000000e+00
1.000000e+00 9.800000e-01 0.000000e+00
1.000000e+00 9.866670e-01 0.000000e+00
1.000000e+00 9.933330e-01 0.000000e+00
1.000000e+00 1.000000e+00 0.000000e+00
LINES 451 1350
2 0 1
2 1 2
2 2 3
2 3 4
2 4 5
2 5 6
2 6 7
2 7 8
2 8 9
2 9 10
2 10 11
2 11 12
2 12 13
2 13 14
2 14 15
2 15 16
2 16 17
2 17 18
2 18 19
2 19 20
2 20 21
2 21 22
2 22 23
2 23 24
2 24 25
2 25 26
2 26 27
2 27 28
2 28 29
2 29 30
2 30 31
2 31 32
2 32 33
2 33 34
2 34 35
2 35 36
2 36 37
2 37 38
2 38 39
2 39 40
2 40 41
2 41 42
2 42 43
2 43 44
2 44 45
2 45 46
2 46 47
2 47 48
2 48 49
2 49 50
2 50 51
2 51 52
2 52 53
2 53 54
2 54 55
2 55 56
2 56 57
2 57 58
2 58 59
2 59 60
2 60 61
2 61 62
2 62 63
2 63 64
2 64 65
2 65 66
2 66 67
2 67 68
2 68 69
2 69 70
2 70 71
2 71 72
2 72 73
2 73 74
2 74 75
2 75 76
2 76 77
2 77 78
2 78 79
2 79 80
2 80 81
2 81 82
2 82 83
2 83 84
2 84 85
2 85 86
2 86 87
2 87 88
2 88 89
2 89 90
2 90 91
2 91 92
2 92 93
2 93 94
2 94 95
2 95 96
2 96 97
2 97 98
2 98 99
2 99 100
2 100 101
2 101 102
2 102 103
2 103 104
2 104 105
2 105 106
2 106 107
2 107 108
2 108 109
2 109 110
2 110 111
2 111 112
2 112 113
2 113 114
2 114 115
2 115 116
2 116 117
2 117 118
2 118 119
2 119 120
2 120 121
2 121 122
2 122 123
2 123 124
2 124 125
2 125 126
2 126 127
2 127 128
2 128 129
2 129 130
2 130 131
2 131 132
2 132 133
2 133 134
2 134 135
2 135 136
2 136 137
2 137 138
2 138 139
2 139 140
2 140 141
2 141 142
2 142 143
2 143 144
2 144 145
2 145 146
2 146 147
2 147 148
2 148 149
2 149 150
2 150 151
2 151 152
2 152 153
2 153 154
2 154 155
2 155 156
2 156 157
2 157 158
2 158 159
2 159 160
2 160 161
2 161 162
2 162 163
2 163 164
2 164 165
2 165 166
2 166 167
2 167 168
2 168 169
2 169 170
2 170 171
2 171 172
2 172 173
2 173 174
2 174 175
2 175 176
2 176 177
2 177 178
2 178 179
2 179 180
2 180 181
2 181 182
2 182 183
2 183 184
2 184 185
2 185 186
2 186 187
2 187 188
2 188 189
2 189 190
2 190 191
2 191 192
2 192 193
2 193 194
2 194 195
2 195 196
2 196 197
2 197 198
2 198 199
2 199 200
2 200 201
2 201 202
2 202 203
2 203 204
2 204 205
2 205 206
2 206 207
2 207 208
2 208 209
2 209 210
2 210 211
2 211 212
2 212 213
2 213 214
2 214 215
2 215 216
2 216 217
2 217 218
2 218 219
2 219 220
2 220 221
2 221 222
2 222 223
2 223 224
2 224 225
2 225 226
2 226 227
2 227 228
2 228 229
2 229 230
2 230 231
2 231 232
2 232 233
2 233 234
2 234 235
2 235 236
2 236 237
2 237 238
2 238 239
2 239 240
2 240 241
2 241 242
2 242 243
2 243 244
2 244 245
2 245 246
2 246 247
2 247 248
2 248 249
2 249 250
2 250 251
2 251 252
2 252 253
2 253 254
2 254 255
2 255 256
2 256 257
2 257 258
2 258 259
2 259 260
2 260 261
2 261 262
2 262 263
2 263 264
2 264 265
2 265 266
2 266 267
2 267 268
2 268 269
2 269 270
2 270 271
2 271 272
2 272 273
2 273 274
2 274 275
2 275 276
2 276 277
2 277 278
2 278 279
2 279 280
2 280 281
2 281 282
2 282 283
2 283 284
2 284 285
2 285 286
2 286 287
2 287 288
2 288 289
2 289 290
2 290 291
2 291 292
2 292 293
2 293 294
2 294 295
2 295 296
2 296 297
2 297 298
2 298 299
2 299 300
2 150 301
2 301 302
2 302 303
2 303 304
2 304 305
2 305 306
2 306 307
2 307 308
2 308 309
2 309 310
2 310 311
2 311 312
2 312 313
2 313 314
2 314 315
2 315 316
2 316 317
2 317 318
2 318 319
2 319 320
2 320 321
2 321 322
2 322 323
2 323 324
2 324 325
2 325 326
2 326 327
2 327 328
2 328 329
2 329 330
2 330 331
2 331 332
2 332 333
2 333 334
2 334 335
2 335 336
2 336 337
2 337 338
2 338 339
2 339 340
2 340 341
2 341 342
2 342 343
2 343 344
2 344 345
2 345 346
2 346 347
2 347 348
2 348 349
2 349 350
2 350 351
2 351 352
2 352 353
2 353 354
2 354 355
2 355 356
2 356 357
2 357 358
2 358 359
2 359 360
2 360 361
2 361 362
2 362 363
2 363 364
2 364 365
2 365 366
2 366 367
2 367 368
2 368 369
2 369 370
2 370 371
2 371 372
2 372 373
2 373 374
2 374 375
2 375 376
2 376 377
2 377 378
2 378 379
2 379 380
2 380 381
2 381 382
2 382 383
2 383 384
2 384 385
2 385 386
2 386 387
2 387 388
2 388 389
2 389 390
2 390 391
2 391 392
2 392 393
2 393 394
2 394 395
2 395 396
2 396 397
2 397 398
2 398 399
2 399 400
2 400 401
2 401 402
2 402 403
2 403 404
2 404 405
2 405 406
2 406 407
2 407 408
2 408 409
2 409 410
2 410 411
2 411 412
2 412 413
2 413 414
2 414 415
2 415 416
2 416 417
2 417 418
2 418 419
2 419 420
2 420 421
2 421 422
2 422 423
2 423 424
2 424 425
2 425 426
2 426 427
2 427 428
2 428 429
2 429 430
2 430 431
2 431 432
2 432 433
2 433 434
2 434 435
2 435 436
2 436 437
2 437 438
2 438 439
2 439 440
2 440 441
2 441 442
2 442 443
2 443 444
2 444 445
2 445 446
2 446 447
2 447 448
2 448 449
2 449 450
POINT_DATA 451
SCALARS vm float 1
LOOKUP_TABLE default
3.211415e+01
3.211510e+01
3.211796e+01
3.212272e+01
3.212940e+01
3.213799e+01
3.215802e+01
3.217028e+01
3.218407e+01
3.219939e+01
3.221621e+01
3.223450e+01
3.225424e+01
3.227541e+01
3.229799e+01
3.232194e+01
3.234724e+01
3.237387e+01
3.240180e+01
3.243101e+01
3.246146e+01
3.249313e+01
3.252599e+01
3.256002e+01
3.259518e+01
3.263145e+01
3.266881e+01
3.270721e+01
3.274664e+01
3.278707e+01
3.282846e+01
3.287080e+01
3.291404e+01
3.295816e+01
3.300314e+01
3.304894e+01
3.309554e+01
3.314290e+01
3.319100e+01
3.323981e+01
3.328930e+01
3.333945e+01
3.339022e+01
3.344158e+01
3.349352e+01
3.354599e+01
3.359898e+01
3.365245e+01
3.370638e+01
3.376074e+01
3.381550e+01
3.387063e+01
3.392612e+01
3.398192e+01
3.403802e+01
3.409439e+01
3.415101e+01
3.420784e+01
3.426487e+01
3.432206e+01
3.437940e+01
3.443685e+01
3.449440e+01
3.455202e+01
3.460969e+01
3.466739e+01
3.472509e+01
3.478276e+01
3.484040e+01
3.489797e+01
3.495547e+01
3.501285e+01
3.507012e+01
3.512724e+01
3.518419e+01
3.524097e+01
3.529755e+01
3.535391e+01
3.541004e+01
3.546591e+01
3.552153e+01
3.557685e+01
3.563188e+01
3.568660e+01
3.574100e+01
3.579505e+01
3.584875e+01
3.590208e+01
3.595504e+01
3.600761e+01
3.605977e+01
3.611153e+01
3.616286e+01
3.621376e+01
3.626422e+01
3.631423e+01
3.636378e+01
3.641286e+01
3.646147e+01
3.650960e+01
3.655724e+01
3.660438e+01
3.665101e+01
3.669714e+01
3.674275e+01
3.678784e+01
3.683240e+01
3.687643e+01
3.691992e+01
3.696287e+01
3.700526e+01
3.704710e+01
3.708838e+01
3.712909e+01
3.716923e+01
3.720879e+01
3.724777e+01
3.728615e+01
3.732394e+01
3.736113e+01
3.739771e+01
3.743367e+01
3.746901e+01
3.750371e+01
3.753778e+01
3.757120e+01
3.760397e+01
3.763609e+01
3.766753e+01
3.769830e+01
3.772840e+01
3.775781e+01
3.778654e+01
3.781459e+01
3.784197e+01
3.786868e+01
3.789473e+01
3.792017e+01
3.794501e+01
3.796932e+01
3.799316e+01
3.801665e+01
3.803991e+01
3.806313e+01
3.808656e+01
3.811055e+01
3.813554e+01
3.816213e+01
3.819109e+01
3.822333e+01
3.825959e+01
3.827967e+01
3.829575e+01
3.830835e+01
3.831776e+01
3.832422e+01
3.832798e+01
3.832938e+01
3.832880e+01
3.832672e+01
3.832373e+01
3.832059e+01
3.831820e+01
3.831771e+01
3.832054e+01
3.832844e+01
3.834357e+01
3.836857e+01
3.840661e+01
3.846136e+01
3.853684e+01
3.863676e+01
3.876320e+01
3.891371e+01
3.907643e+01
3.922308e+01
3.930132e+01
3.922972e+01
3.889918e+01
3.818315e+01
3.695625e+01
3.511811e+01
3.261766e+01
2.947151e+01
2.576820e+01
2.165258e+01
1.729368e+01
1.285015e+01
8.447594e+00
4.171872e+00
7.375119e-02
-3.821965e+00
-7.507521e+00
-1.098535e+01
-1.426345e+01
-1.735245e+01
-2.026399e+01
-2.300970e+01
-2.560078e+01
-2.804773e+01
-3.036030e+01
-3.254746e+01
-3.461746e+01
-3.657784e+01
-3.843555e+01
-4.019692e+01
-4.186780e+01
-4.345356e+01
-4.495915e+01
-4.638914e+01
-4.774777e+01
-4.903896e+01
-5.026638e+01
-5.143342e+01
-5.254326e+01
-5.359890e+01
-5.460312e+01
-5.555855e+01
-5.646765e+01
-5.733277e+01
-5.815609e+01
-5.893969e+01
-5.968553e+01
-6.039548e+01
-6.107130e+01
-6.171464e+01
-6.232710e+01
-6.291018e+01
-6.346529e+01
-6.399380e+01
-6.449699e+01
-6.497608e+01
-6.543223e+01
-6.586655e+01
-6.628008e+01
-6.667383e+01
-6.704874e+01
-6.740571e+01
-6.774560e+01
-6.806923e+01
-6.837738e+01
-6.867077e+01
-6.895013e+01
-6.921610e+01
-6.946934e+01
-6.971044e+01
-6.993998e+01
-7.015851e+01
-7.036654e+01
-7.056458e+01
-7.075309e+01
-7.093252e+01
-7.110330e+01
-7.126584e+01
-7.142051e+01
-7.156769e+01
-7.170772e+01
-7.184094e+01
-7.196766e+01
-7.208818e+01
-7.220279e+01
-7.231175e+01
-7.241532e+01
-7.251374e+01
-7.260726e+01
-7.269608e+01
-7.278042e+01
-7.286048e+01
-7.293644e+01
-7.300848e+01
-7.307677e+01
-7.314148e+01
-7.320274e+01
-7.326072e+01
-7.331553e+01
-7.336732e+01
-7.341620e+01
-7.346228e+01
-7.350568e+01
-7.354649e+01
-7.358481e+01
-7.362074e+01
-7.365434e+01
-7.368571e+01
-7.371492e+01
-7.374203e+01
-7.376711e+01
-7.379021e+01
-7.381139e+01
-7.383070e+01
-7.384818e+01
-7.386388e+01
-7.387783e+01
-7.389006e+01
-7.390061e+01
-7.390949e+01
-7.391673e+01
-7.392234e+01
-7.392634e+01
-7.392874e+01
-7.392954e+01
3.827967e+01
3.829575e+01
3.830835e+01
3.831776e+01
3.832422e+01
3.832798e+01
3.832938e+01
3.832880e+01
3.832672e+01
3.832373e+01
3.832059e+01
3.831820e+01
3.831771e+01
3.832054e+01
3.832844e+01
3.834357e+01
3.836857e+01
3.840661e+01
3.846136e+01
3.853684e+01
3.863676e+01
3.876320e+01
3.891371e+01
3.907643e+01
3.922308e+01
3.930132e+01
3.922972e+01
3.889918e+01
3.818315e+01
3.695625e+01
3.511811e+01
3.261766e+01
2.947151e+01
2.576820e+01
2.165258e+01
1.729368e+01
1.285015e+01
8.447594e+00
4.171872e+00
7.375119e-02
-3.821965e+00
-7.507521e+00
-1.098535e+01
-1.426345e+01
-1.735245e+01
-2.026399e+01
-2.300970e+01
-2.560078e+01
-2.804773e+01
-3.036030e+01
-3.254746e+01
-3.461746e+01
-3.657784e+01
-3.843555e+01
-4.019692e+01
-4.186780e+01
-4.345356e+01
-4.495915e+01
-4.638914e+01
-4.774777e+01
-4.903896e+01
-5.026638e+01
-5.143342e+01
-5.254326e+01
-5.359890e+01
-5.460312e+01
-5.555855e+01
-5.646765e+01
-5.733277e+01
-5.815609e+01
-5.893969e+01
-5.968553e+01
-6.039548e+01
-6.107130e+01
-6.171464e+01
-6.232710e+01
-6.291018e+01
-6.346529e+01
-6.399380e+01
-6.449699e+01
-6.497608e+01
-6.543223e+01
-6.586655e+01
-6.628008e+01
-6.667383e+01
-6.704874e+01
-6.740571e+01
-6.774560e+01
-6.806923e+01
-6.837738e+01
-6.867077e+01
-6.895013e+01
-6.921610e+01
-6.946934e+01
-6.971044e+01
-6.993998e+01
-7.015851e+01
-7.036654e+01
-7.056458e+01
-7.075309e+01
-7.093252e+01
-7.110330e+01
-7.126584e+01
-7.142051e+01
-7.156769e+01
-7.170772e+01
-7.184094e+01
-7.196766e+01
-7.208818e+01
-7.220279e+01
-7.231175e+01
-7.241532e+01
-7.251374e+01
-7.260726e+01
-7.269608e+01
-7.278042e+01
-7.286048e+01
-7.293644e+01
-7.300848e+01
-7.307677e+01
-7.314148e+01
-7.320274e+01
-7.326072e+01
-7.331553e+01
-7.336732e+01
-7.341620e+01
-7.346228e+01
-7.350568e+01
-7.354649e+01
-7.358481e+01
-7.362074e+01
-7.365434e+01
-7.368571e+01
-7.371492e+01
-7.374203e+01
-7.376711e+01
-7.379021e+01
-7.381139e+01
-7.383070e+01
-7.384818e+01
-7.386388e+01
-7.387783e+01
-7.389006e+01
-7.390061e+01
-7.390949e+01
-7.391673e+01
-7.392234e+01
-7.392634e+01
-7.392874e+01
-7.392954e+01
