# vtk DataFile Version 3.0
Monodomain FEM
ASCII
DATASET POLYDATA
POINTS 451 float
0.000000e+00 0.000000e+00 0.000000e+00
6.667000e-03 0.000000e+00 0.000000e+00
1.333300e-02 0.000000e+00 0.000000e+00
2.000000e-02 0.000000e+00 0.000000e+00
2.666700e-02 0.000000e+00 0.000000e+00
3.333300e-02 0.000000e+00 0.000000e+00
4.000000e-02 0.000000e+00 0.000000e+00
4.666700e-02 0.000000e+00 0.000000e+00
5.333300e-02 0.000000e+00 0.000000e+00
6.000000e-02 0.000000e+00 0.000000e+00
6.666700e-02 0.000000e+00 0.000000e+00
7.333300e-02 0.000000e+00 0.000000e+00
8.000000e-02 0.000000e+00 0.000000e+00
8.666700e-02 0.000000e+00 0.000000e+00
9.333300e-02 0.000000e+00 0.000000e+00
1.000000e-01 0.000000e+00 0.000000e+00
1.066670e-01 0.000000e+00 0.000000e+00
1.133330e-01 0.000000e+00 0.000000e+00
1.200000e-01 0.000000e+00 0.000000e+00
1.266670e-01 0.000000e+00 0.000000e+00
1.333330e-01 0.000000e+00 0.000000e+00
1.400000e-01 0.000000e+00 0.000000e+00
1.466670e-01 0.000000e+00 0.000000e+00
1.533330e-01 0.000000e+00 0.000000e+00
1.600000e-01 0.000000e+00 0.000000e+00
1.666670e-01 0.000000e+00 0.000000e+00
1.733330e-01 0.000000e+00 0.000000e+00
1.800000e-01 0.000000e+00 0.000000e+00
1.866670e-01 0.000000e+00 0.000000e+00
1.933330e-01 0.000000e+00 0.000000e+00
2.000000e-01 0.000000e+00 0.000000e+00
2.066670e-01 0.000000e+00 0.000000e+00
2.133330e-01 0.000000e+00 0.000000e+00
2.200000e-01 0.000000e+00 0.000000e+00
2.266670e-01 0.000000e+00 0.000000e+00
2.333330e-01 0.000000e+00 0.000000e+00
2.400000e-01 0.000000e+00 0.000000e+00
2.466670e-01 0.000000e+00 0.000000e+00
2.533330e-01 0.000000e+00 0.000000e+00
2.600000e-01 0.000000e+00 0.000000e+00
2.666670e-01 0.000000e+00 0.000000e+00
2.733330e-01 0.000000e+00 0.000000e+00
2.800000e-01 0.000000e+00 0.000000e+00
2.866670e-01 0.000000e+00 0.000000e+00
2.933330e-01 0.000000e+00 0.000000e+00
3.000000e-01 0.000000e+00 0.000000e+00
3.066670e-01 0.000000e+00 0.000000e+00
3.133330e-01 0.000000e+00 0.000000e+00
3.200000e-01 0.000000e+00 0.000000e+00
3.266670e-01 0.000000e+00 0.000000e+00
3.333330e-01 0.000000e+00 0.000000e+00
3.400000e-01 0.000000e+00 0.000000e+00
3.466670e-01 0.000000e+00 0.000000e+00
3.533330e-01 0.000000e+00 0.000000e+00
3.600000e-01 0.000000e+00 0.000000e+00
3.666670e-01 0.000000e+00 0.000000e+00
3.733330e-01 0.000000e+00 0.000000e+00
3.800000e-01 0.000000e+00 0.000000e+00
3.866670e-01 0.000000e+00 0.000000e+00
3.933330e-01 0.000000e+00 0.000000e+00
4.000000e-01 0.000000e+00 0.000000e+00
4.066670e-01 0.000000e+00 0.000000e+00
4.133330e-01 0.000000e+00 0.000000e+00
4.200000e-01 0.000000e+00 0.000000e+00
4.266670e-01 0.000000e+00 0.000000e+00
4.333330e-01 0.000000e+00 0.000000e+00
4.400000e-01 0.000000e+00 0.000000e+00
4.466670e-01 0.000000e+00 0.000000e+00
4.533330e-01 0.000000e+00 0.000000e+00
4.600000e-01 0.000000e+00 0.000000e+00
4.666670e-01 0.000000e+00 0.000000e+00
4.733330e-01 0.000000e+00 0.000000e+00
4.800000e-01 0.000000e+00 0.000000e+00
4.866670e-01 0.000000e+00 0.000000e+00
4.933330e-01 0.000000e+00 0.000000e+00
5.000000e-01 0.000000e+00 0.000000e+00
5.066670e-01 0.000000e+00 0.000000e+00
5.133330e-01 0.000000e+00 0.000000e+00
5.200000e-01 0.000000e+00 0.000000e+00
5.266670e-01 0.000000e+00 0.000000e+00
5.333330e-01 0.000000e+00 0.000000e+00
5.400000e-01 0.000000e+00 0.000000e+00
5.466670e-01 0.000000e+00 0.000000e+00
5.533330e-01 0.000000e+00 0.000000e+00
5.600000e-01 0.000000e+00 0.000000e+00
5.666670e-01 0.000000e+00 0.000000e+00
5.733330e-01 0.000000e+00 0.000000e+00
5.800000e-01 0.000000e+00 0.000000e+00
5.866670e-01 0.000000e+00 0.000000e+00
5.933330e-01 0.000000e+00 0.000000e+00
6.000000e-01 0.000000e+00 0.000000e+00
6.066670e-01 0.000000e+00 0.000000e+00
6.133330e-01 0.000000e+00 0.000000e+00
6.200000e-01 0.000000e+00 0.000000e+00
6.266670e-01 0.000000e+00 0.000000e+00
6.333330e-01 0.000000e+00 0.000000e+00
6.400000e-01 0.000000e+00 0.000000e+00
6.466670e-01 0.000000e+00 0.000000e+00
6.533330e-01 0.000000e+00 0.000000e+00
6.600000e-01 0.000000e+00 0.000000e+00
6.666670e-01 0.000000e+00 0.000000e+00
6.733330e-01 0.000000e+00 0.000000e+00
6.800000e-01 0.000000e+00 0.000000e+00
6.866670e-01 0.000000e+00 0.000000e+00
6.933330e-01 0.000000e+00 0.000000e+00
7.000000e-01 0.000000e+00 0.000000e+00
7.066670e-01 0.000000e+00 0.000000e+00
7.133330e-01 0.000000e+00 0.000000e+00
7.200000e-01 0.000000e+00 0.000000e+00
7.266670e-01 0.000000e+00 0.000000e+00
7.333330e-01 0.000000e+00 0.000000e+00
7.400000e-01 0.000000e+00 0.000000e+00
7.466670e-01 0.000000e+00 0.000000e+00
7.533330e-01 0.000000e+00 0.000000e+00
7.600000e-01 0.000000e+00 0.000000e+00
7.666670e-01 0.000000e+00 0.000000e+00
7.733330e-01 0.000000e+00 0.000000e+00
7.800000e-01 0.000000e+00 0.000000e+00
7.866670e-01 0.000000e+00 0.000000e+00
7.933330e-01 0.000000e+00 0.000000e+00
8.000000e-01 0.000000e+00 0.000000e+00
8.066670e-01 0.000000e+00 0.000000e+00
8.133330e-01 0.000000e+00 0.000000e+00
8.200000e-01 0.000000e+00 0.000000e+00
8.266670e-01 0.000000e+00 0.000000e+00
8.333330e-01 0.000000e+00 0.000000e+00
8.400000e-01 0.000000e+00 0.000000e+00
8.466670e-01 0.000000e+00 0.000000e+00
8.533330e-01 0.000000e+00 0.000000e+00
8.600000e-01 0.000000e+00 0.000000e+00
8.666670e-01 0.000000e+00 0.000000e+00
8.733330e-01 0.000000e+00 0.000000e+00
8.800000e-01 0.000000e+00 0.000000e+00
8.866670e-01 0.000000e+00 0.000000e+00
8.933330e-01 0.000000e+00 0.000000e+00
9.000000e-01 0.000000e+00 0.000000e+00
9.066670e-01 0.000000e+00 0.000000e+00
9.133330e-01 0.000000e+00 0.000000e+00
9.200000e-01 0.000000e+00 0.000000e+00
9.266670e-01 0.000000e+00 0.000000e+00
9.333330e-01 0.000000e+00 0.000000e+00
9.400000e-01 0.000000e+00 0.000000e+00
9.466670e-01 0.000000e+00 0.000000e+00
9.533330e-01 0.000000e+00 0.000000e+00
9.600000e-01 0.000000e+00 0.000000e+00
9.666670e-01 0.000000e+00 0.000000e+00
9.733330e-01 0.000000e+00 0.000000e+00
9.800000e-01 0.000000e+00 0.000000e+00
9.866670e-01 0.000000e+00 0.000000e+00
9.933330e-01 0.000000e+00 0.000000e+00
1.000000e+00 0.000000e+00 0.000000e+00
1.000000e+00 -6.667000e-03 0.000000e+00
1.000000e+00 -1.333300e-02 0.000000e+00
1.000000e+00 -2.000000e-02 0.000000e+00
1.000000e+00 -2.666700e-02 0.000000e+00
1.000000e+00 -3.333300e-02 0.000000e+00
1.000000e+00 -4.000000e-02 0.000000e+00
1.000000e+00 -4.666700e-02 0.000000e+00
1.000000e+00 -5.333300e-02 0.000000e+00
1.000000e+00 -6.000000e-02 0.000000e+00
1.000000e+00 -6.666700e-02 0.000000e+00
1.000000e+00 -7.333300e-02 0.000000e+00
1.000000e+00 -8.000000e-02 0.000000e+00
1.000000e+00 -8.666700e-02 0.000000e+00
1.000000e+00 -9.333300e-02 0.000000e+00
1.000000e+00 -1.000000e-01 0.000000e+00
1.000000e+00 -1.066670e-01 0.000000e+00
1.000000e+00 -1.133330e-01 0.000000e+00
1.000000e+00 -1.200000e-01 0.000000e+00
1.000000e+00 -1.266670e-01 0.000000e+00
1.000000e+00 -1.333330e-01 0.000000e+00
1.000000e+00 -1.400000e-01 0.000000e+00
1.000000e+00 -1.466670e-01 0.000000e+00
1.000000e+00 -1.533330e-01 0.000000e+00
1.000000e+00 -1.600000e-01 0.000000e+00
1.000000e+00 -1.666670e-01 0.000000e+00
1.000000e+00 -1.733330e-01 0.000000e+00
1.000000e+00 -1.800000e-01 0.000000e+00
1.000000e+00 -1.866670e-01 0.000000e+00
1.000000e+00 -1.933330e-01 0.000000e+00
1.000000e+00 -2.000000e-01 0.000000e+00
1.000000e+00 -2.066670e-01 0.000000e+00
1.000000e+00 -2.133330e-01 0.000000e+00
1.000000e+00 -2.200000e-01 0.000000e+00
1.000000e+00 -2.266670e-01 0.000000e+00
1.000000e+00 -2.333330e-01 0.000000e+00
1.000000e+00 -2.400000e-01 0.000000e+00
1.000000e+00 -2.466670e-01 0.000000e+00
1.000000e+00 -2.533330e-01 0.000000e+00
1.000000e+00 -2.600000e-01 0.000000e+00
1.000000e+00 -2.666670e-01 0.000000e+00
1.000000e+00 -2.733330e-01 0.000000e+00
1.000000e+00 -2.800000e-01 0.000000e+00
1.000000e+00 -2.866670e-01 0.000000e+00
1.000000e+00 -2.933330e-01 0.000000e+00
1.000000e+00 -3.000000e-01 0.000000e+00
1.000000e+00 -3.066670e-01 0.000000e+00
1.000000e+00 -3.133330e-01 0.000000e+00
1.000000e+00 -3.200000e-01 0.000000e+00
1.000000e+00 -3.266670e-01 0.000000e+00
1.000000e+00 -3.333330e-01 0.000000e+00
1.000000e+00 -3.400000e-01 0.000000e+00
1.000000e+00 -3.466670e-01 0.000000e+00
1.000000e+00 -3.533330e-01 0.000000e+00
1.000000e+00 -3.600000e-01 0.000000e+00
1.000000e+00 -3.666670e-01 0.000000e+00
1.000000e+00 -3.733330e-01 0.000000e+00
1.000000e+00 -3.800000e-01 0.000000e+00
1.000000e+00 -3.866670e-01 0.000000e+00
1.000000e+00 -3.933330e-01 0.000000e+00
1.000000e+00 -4.000000e-01 0.000000e+00
1.000000e+00 -4.066670e-01 0.000000e+00
1.000000e+00 -4.133330e-01 0.000000e+00
1.000000e+00 -4.200000e-01 0.000000e+00
1.000000e+00 -4.266670e-01 0.000000e+00
1.000000e+00 -4.333330e-01 0.000000e+00
1.000000e+00 -4.400000e-01 0.000000e+00
1.000000e+00 -4.466670e-01 0.000000e+00
1.000000e+00 -4.533330e-01 0.000000e+00
1.000000e+00 -4.600000e-01 0.000000e+00
1.000000e+00 -4.666670e-01 0.000000e+00
1.000000e+00 -4.733330e-01 0.000000e+00
1.000000e+00 -4.800000e-01 0.000000e+00
1.000000e+00 -4.866670e-01 0.000000e+00
1.000000e+00 -4.933330e-01 0.000000e+00
1.000000e+00 -5.000000e-01 0.000000e+00
1.000000e+00 -5.066670e-01 0.000000e+00
1.000000e+00 -5.133330e-01 0.000000e+00
1.000000e+00 -5.200000e-01 0.000000e+00
1.000000e+00 -5.266670e-01 0.000000e+00
1.000000e+00 -5.333330e-01 0.000000e+00
1.000000e+00 -5.400000e-01 0.000000e+00
1.000000e+00 -5.466670e-01 0.000000e+00
1.000000e+00 -5.533330e-01 0.000000e+00
1.000000e+00 -5.600000e-01 0.000000e+00
1.000000e+00 -5.666670e-01 0.000000e+00
1.000000e+00 -5.733330e-01 0.000000e+00
1.000000e+00 -5.800000e-01 0.000000e+00
1.000000e+00 -5.866670e-01 0.000000e+00
1.000000e+00 -5.933330e-01 0.000000e+00
1.000000e+00 -6.000000e-01 0.000000e+00
1.000000e+00 -6.066670e-01 0.000000e+00
1.000000e+00 -6.133330e-01 0.000000e+00
1.000000e+00 -6.200000e-01 0.000000e+00
1.000000e+00 -6.266670e-01 0.000000e+00
1.000000e+00 -6.333330e-01 0.000000e+00
1.000000e+00 -6.400000e-01 0.000000e+00
1.000000e+00 -6.466670e-01 0.000000e+00
1.000000e+00 -6.533330e-01 0.000000e+00
1.000000e+00 -6.600000e-01 0.000000e+00
1.000000e+00 -6.666670e-01 0.000000e+00
1.000000e+00 -6.733330e-01 0.000000e+00
1.000000e+00 -6.800000e-01 0.000000e+00
1.000000e+00 -6.866670e-01 0.000000e+00
1.000000e+00 -6.933330e-01 0.000000e+00
1.000000e+00 -7.000000e-01 0.000000e+00
1.000000e+00 -7.066670e-01 0.000000e+00
1.000000e+00 -7.133330e-01 0.000000e+00
1.000000e+00 -7.200000e-01 0.000000e+00
1.000000e+00 -7.266670e-01 0.000000e+00
1.000000e+00 -7.333330e-01 0.000000e+00
1.000000e+00 -7.400000e-01 0.000000e+00
1.000000e+00 -7.466670e-01 0.000000e+00
1.000000e+00 -7.533330e-01 0.000000e+00
1.000000e+00 -7.600000e-01 0.000000e+00
1.000000e+00 -7.666670e-01 0.000000e+00
1.000000e+00 -7.733330e-01 0.000000e+00
1.000000e+00 -7.800000e-01 0.000000e+00
1.000000e+00 -7.866670e-01 0.000000e+00
1.000000e+00 -7.933330e-01 0.000000e+00
1.000000e+00 -8.000000e-01 0.000000e+00
1.000000e+00 -8.066670e-01 0.000000e+00
1.000000e+00 -8.133330e-01 0.000000e+00
1.000000e+00 -8.200000e-01 0.000000e+00
1.000000e+00 -8.266670e-01 0.000000e+00
1.000000e+00 -8.333330e-01 0.000000e+00
1.000000e+00 -8.400000e-01 0.000000e+00
1.000000e+00 -8.466670e-01 0.000000e+00
1.000000e+00 -8.533330e-01 0.000000e+00
1.000000e+00 -8.600000e-01 0.000000e+00
1.000000e+00 -8.666670e-01 0.000000e+00
1.000000e+00 -8.733330e-01 0.000000e+00
1.000000e+00 -8.800000e-01 0.000000e+00
1.000000e+00 -8.866670e-01 0.000000e+00
1.000000e+00 -8.933330e-01 0.000000e+00
1.000000e+00 -9.000000e-01 0.000000e+00
1.000000e+00 -9.066670e-01 0.000000e+00
1.000000e+00 -9.133330e-01 0.000000e+00
1.000000e+00 -9.200000e-01 0.000000e+00
1.000000e+00 -9.266670e-01 0.000000e+00
1.000000e+00 -9.333330e-01 0.000000e+00
1.000000e+00 -9.400000e-01 0.000000e+00
1.000000e+00 -9.466670e-01 0.000000e+00
1.000000e+00 -9.533330e-01 0.000000e+00
1.000000e+00 -9.600000e-01 0.000000e+00
1.000000e+00 -9.666670e-01 0.000000e+00
1.000000e+00 -9.733330e-01 0.000000e+00
1.000000e+00 -9.800000e-01 0.000000e+00
1.000000e+00 -9.866670e-01 0.000000e+00
1.000000e+00 -9.933330e-01 0.000000e+00
1.000000e+00 -1.000000e+00 0.000000e+00
1.000000e+00 6.667000e-03 0.000000e+00
1.000000e+00 1.333300e-02 0.000000e+00
1.000000e+00 2.000000e-02 0.000000e+00
1.000000e+00 2.666700e-02 0.000000e+00
1.000000e+00 3.333300e-02 0.000000e+00
1.000000e+00 4.000000e-02 0.000000e+00
1.000000e+00 4.666700e-02 0.000000e+00
1.000000e+00 5.333300e-02 0.000000e+00
1.000000e+00 6.000000e-02 0.000000e+00
1.000000e+00 6.666700e-02 0.000000e+00
1.000000e+00 7.333300e-02 0.000000e+00
1.000000e+00 8.000000e-02 0.000000e+00
1.000000e+00 8.666700e-02 0.000000e+00
1.000000e+00 9.333300e-02 0.000000e+00
1.000000e+00 1.000000e-01 0.000000e+00
1.000000e+00 1.066670e-01 0.000000e+00
1.000000e+00 1.133330e-01 0.000000e+00
1.000000e+00 1.200000e-01 0.000000e+00
1.000000e+00 1.266670e-01 0.000000e+00
1.000000e+00 1.333330e-01 0.000000e+00
1.000000e+00 1.400000e-01 0.000000e+00
1.000000e+00 1.466670e-01 0.000000e+00
1.000000e+00 1.533330e-01 0.000000e+00
1.000000e+00 1.600000e-01 0.000000e+00
1.000000e+00 1.666670e-01 0.000000e+00
1.000000e+00 1.733330e-01 0.000000e+00
1.000000e+00 1.800000e-01 0.000000e+00
1.000000e+00 1.866670e-01 0.000000e+00
1.000000e+00 1.933330e-01 0.000000e+00
1.000000e+00 2.000000e-01 0.000000e+00
1.000000e+00 2.066670e-01 0.000000e+00
1.000000e+00 2.133330e-01 0.000000e+00
1.000000e+00 2.200000e-01 0.000000e+00
1.000000e+00 2.266670e-01 0.000000e+00
1.000000e+00 2.333330e-01 0.000000e+00
1.000000e+00 2.400000e-01 0.000000e+00
1.000000e+00 2.466670e-01 0.000000e+00
1.000000e+00 2.533330e-01 0.000000e+00
1.000000e+00 2.600000e-01 0.000000e+00
1.000000e+00 2.666670e-01 0.000000e+00
1.000000e+00 2.733330e-01 0.000000e+00
1.000000e+00 2.800000e-01 0.000000e+00
1.000000e+00 2.866670e-01 0.000000e+00
1.000000e+00 2.933330e-01 0.000000e+00
1.000000e+00 3.000000e-01 0.000000e+00
1.000000e+00 3.066670e-01 0.000000e+00
1.000000e+00 3.133330e-01 0.000000e+00
1.000000e+00 3.200000e-01 0.000000e+00
1.000000e+00 3.266670e-01 0.000000e+00
1.000000e+00 3.333330e-01 0.000000e+00
1.000000e+00 3.400000e-01 0.000000e+00
1.000000e+00 3.466670e-01 0.000000e+00
1.000000e+00 3.533330e-01 0.000000e+00
1.000000e+00 3.600000e-01 0.000000e+00
1.000000e+00 3.666670e-01 0.000000e+00
1.000000e+00 3.733330e-01 0.000000e+00
1.000000e+00 3.800000e-01 0.000000e+00
1.000000e+00 3.866670e-01 0.000000e+00
1.000000e+00 3.933330e-01 0.000000e+00
1.000000e+00 4.000000e-01 0.000000e+00
1.000000e+00 4.066670e-01 0.000000e+00
1.000000e+00 4.133330e-01 0.000000e+00
1.000000e+00 4.200000e-01 0.000000e+00
1.000000e+00 4.266670e-01 0.000000e+00
1.000000e+00 4.333330e-01 0.000000e+00
1.000000e+00 4.400000e-01 0.000000e+00
1.000000e+00 4.466670e-01 0.000000e+00
1.000000e+00 4.533330e-01 0.000000e+00
1.000000e+00 4.600000e-01 0.000000e+00
1.000000e+00 4.666670e-01 0.000000e+00
1.000000e+00 4.733330e-01 0.000000e+00
1.000000e+00 4.800000e-01 0.000000e+00
1.000000e+00 4.866670e-01 0.000000e+00
1.000000e+00 4.933330e-01 0.000000e+00
1.000000e+00 5.000000e-01 0.000000e+00
1.000000e+00 5.066670e-01 0.000000e+00
1.000000e+00 5.133330e-01 0.000000e+00
1.000000e+00 5.200000e-01 0.000000e+00
1.000000e+00 5.266670e-01 0.000000e+00
1.000000e+00 5.333330e-01 0.000000e+00
1.000000e+00 5.400000e-01 0.000000e+00
1.000000e+00 5.466670e-01 0.000000e+00
1.000000e+00 5.533330e-01 0.000000e+00
1.000000e+00 5.600000e-01 0.000000e+00
1.000000e+00 5.666670e-01 0.000000e+00
1.000000e+00 5.733330e-01 0.000000e+00
1.000000e+00 5.800000e-01 0.000000e+00
1.000000e+00 5.866670e-01 0.000000e+00
1.000000e+00 5.933330e-01 0.000000e+00
1.000000e+00 6.000000e-01 0.000000e+00
1.000000e+00 6.066670e-01 0.000000e+00
1.000000e+00 6.133330e-01 0.000000e+00
1.000000e+00 6.200000e-01 0.000000e+00
1.000000e+00 6.266670e-01 0.000000e+00
1.000000e+00 6.333330e-01 0.000000e+00
1.000000e+00 6.400000e-01 0.000000e+00
1.000000e+00 6.466670e-01 0.000000e+00
1.000000e+00 6.533330e-01 0.000000e+00
1.000000e+00 6.600000e-01 0.000000e+00
1.000000e+00 6.666670e-01 0.000000e+00
1.000000e+00 6.733330e-01 0.000000e+00
1.000000e+00 6.800000e-01 0.000000e+00
1.000000e+00 6.866670e-01 0.000000e+00
1.000000e+00 6.933330e-01 0.000000e+00
1.000000e+00 7.000000e-01 0.000000e+00
1.000000e+00 7.066670e-01 0.000000e+00
1.000000e+00 7.133330e-01 0.000000e+00
1.000000e+00 7.200000e-01 0.000000e+00
1.000000e+00 7.266670e-01 0.000000e+00
1.000000e+00 7.333330e-01 0.000000e+00
1.000000e+00 7.400000e-01 0.000000e+00
1.000000e+00 7.466670e-01 0.000000e+00
1.000000e+00 7.533330e-01 0.000000e+00
1.000000e+00 7.600000e-01 0.000000e+00
1.000000e+00 7.666670e-01 0.000000e+00
1.000000e+00 7.733330e-01 0.000000e+00
1.000000e+00 7.800000e-01 0.000000e+00
1.000000e+00 7.866670e-01 0.000000e+00
1.000000e+00 7.933330e-01 0.000000e+00
1.000000e+00 8.000000e-01 0.000000e+00
1.000000e+00 8.066670e-01 0.000000e+00
1.000000e+00 8.133330e-01 0.000000e+00
1.000000e+00 8.200000e-01 0.000000e+00
1.000000e+00 8.266670e-01 0.000000e+00
1.000000e+00 8.333330e-01 0.000000e+00
1.000000e+00 8.400000e-01 0.000000e+00
1.000000e+00 8.466670e-01 0.000000e+00
1.000000e+00 8.533330e-01 0.000000e+00
1.000000e+00 8.600000e-01 0.000000e+00
1.000000e+00 8.666670e-01 0.000000e+00
1.000000e+00 8.733330e-01 0.000000e+00
1.000000e+00 8.800000e-01 0.000000e+00
1.000000e+00 8.866670e-01 0.000000e+00
1.000000e+00 8.933330e-01 0.000000e+00
1.000000e+00 9.000000e-01 0.000000e+00
1.000000e+00 9.066670e-01 0.000000e+00
1.000000e+00 9.133330e-01 0.000000e+00
1.000000e+00 9.200000e-01 0.000000e+00
1.000000e+00 9.266670e-01 0.000000e+00
1.000000e+00 9.333330e-01 0.000000e+00
1.000000e+00 9.400000e-01 0.000000e+00
1.000000e+00 9.466670e-01 0.000000e+00
1.000000e+00 9.533330e-01 0.000000e+00
1.000000e+00 9.600000e-01 0.000000e+00
1.000000e+00 9.666670e-01 0.000000e+00
1.000000e+00 9.733330e-01 0.000000e+00
1.000000e+00 9.800000e-01 0.000000e+00
1.000000e+00 9.866670e-01 0.000000e+00
1.000000e+00 9.933330e-01 0.000000e+00
1.000000e+00 1.000000e+00 0.000000e+00
LINES 451 1350
2 0 1
2 1 2
2 2 3
2 3 4
2 4 5
2 5 6
2 6 7
2 7 8
2 8 9
2 9 10
2 10 11
2 11 12
2 12 13
2 13 14
2 14 15
2 15 16
2 16 17
2 17 18
2 18 19
2 19 20
2 20 21
2 21 22
2 22 23
2 23 24
2 24 25
2 25 26
2 26 27
2 27 28
2 28 29
2 29 30
2 30 31
2 31 32
2 32 33
2 33 34
2 34 35
2 35 36
2 36 37
2 37 38
2 38 39
2 39 40
2 40 41
2 41 42
2 42 43
2 43 44
2 44 45
2 45 46
2 46 47
2 47 48
2 48 49
2 49 50
2 50 51
2 51 52
2 52 53
2 53 54
2 54 55
2 55 56
2 56 57
2 57 58
2 58 59
2 59 60
2 60 61
2 61 62
2 62 63
2 63 64
2 64 65
2 65 66
2 66 67
2 67 68
2 68 69
2 69 70
2 70 71
2 71 72
2 72 73
2 73 74
2 74 75
2 75 76
2 76 77
2 77 78
2 78 79
2 79 80
2 80 81
2 81 82
2 82 83
2 83 84
2 84 85
2 85 86
2 86 87
2 87 88
2 88 89
2 89 90
2 90 91
2 91 92
2 92 93
2 93 94
2 94 95
2 95 96
2 96 97
2 97 98
2 98 99
2 99 100
2 100 101
2 101 102
2 102 103
2 103 104
2 104 105
2 105 106
2 106 107
2 107 108
2 108 109
2 109 110
2 110 111
2 111 112
2 112 113
2 113 114
2 114 115
2 115 116
2 116 117
2 117 118
2 118 119
2 119 120
2 120 121
2 121 122
2 122 123
2 123 124
2 124 125
2 125 126
2 126 127
2 127 128
2 128 129
2 129 130
2 130 131
2 131 132
2 132 133
2 133 134
2 134 135
2 135 136
2 136 137
2 137 138
2 138 139
2 139 140
2 140 141
2 141 142
2 142 143
2 143 144
2 144 145
2 145 146
2 146 147
2 147 148
2 148 149
2 149 150
2 150 151
2 151 152
2 152 153
2 153 154
2 154 155
2 155 156
2 156 157
2 157 158
2 158 159
2 159 160
2 160 161
2 161 162
2 162 163
2 163 164
2 164 165
2 165 166
2 166 167
2 167 168
2 168 169
2 169 170
2 170 171
2 171 172
2 172 173
2 173 174
2 174 175
2 175 176
2 176 177
2 177 178
2 178 179
2 179 180
2 180 181
2 181 182
2 182 183
2 183 184
2 184 185
2 185 186
2 186 187
2 187 188
2 188 189
2 189 190
2 190 191
2 191 192
2 192 193
2 193 194
2 194 195
2 195 196
2 196 197
2 197 198
2 198 199
2 199 200
2 200 201
2 201 202
2 202 203
2 203 204
2 204 205
2 205 206
2 206 207
2 207 208
2 208 209
2 209 210
2 210 211
2 211 212
2 212 213
2 213 214
2 214 215
2 215 216
2 216 217
2 217 218
2 218 219
2 219 220
2 220 221
2 221 222
2 222 223
2 223 224
2 224 225
2 225 226
2 226 227
2 227 228
2 228 229
2 229 230
2 230 231
2 231 232
2 232 233
2 233 234
2 234 235
2 235 236
2 236 237
2 237 238
2 238 239
2 239 240
2 240 241
2 241 242
2 242 243
2 243 244
2 244 245
2 245 246
2 246 247
2 247 248
2 248 249
2 249 250
2 250 251
2 251 252
2 252 253
2 253 254
2 254 255
2 255 256
2 256 257
2 257 258
2 258 259
2 259 260
2 260 261
2 261 262
2 262 263
2 263 264
2 264 265
2 265 266
2 266 267
2 267 268
2 268 269
2 269 270
2 270 271
2 271 272
2 272 273
2 273 274
2 274 275
2 275 276
2 276 277
2 277 278
2 278 279
2 279 280
2 280 281
2 281 282
2 282 283
2 283 284
2 284 285
2 285 286
2 286 287
2 287 288
2 288 289
2 289 290
2 290 291
2 291 292
2 292 293
2 293 294
2 294 295
2 295 296
2 296 297
2 297 298
2 298 299
2 299 300
2 150 301
2 301 302
2 302 303
2 303 304
2 304 305
2 305 306
2 306 307
2 307 308
2 308 309
2 309 310
2 310 311
2 311 312
2 312 313
2 313 314
2 314 315
2 315 316
2 316 317
2 317 318
2 318 319
2 319 320
2 320 321
2 321 322
2 322 323
2 323 324
2 324 325
2 325 326
2 326 327
2 327 328
2 328 329
2 329 330
2 330 331
2 331 332
2 332 333
2 333 334
2 334 335
2 335 336
2 336 337
2 337 338
2 338 339
2 339 340
2 340 341
2 341 342
2 342 343
2 343 344
2 344 345
2 345 346
2 346 347
2 347 348
2 348 349
2 349 350
2 350 351
2 351 352
2 352 353
2 353 354
2 354 355
2 355 356
2 356 357
2 357 358
2 358 359
2 359 360
2 360 361
2 361 362
2 362 363
2 363 364
2 364 365
2 365 366
2 366 367
2 367 368
2 368 369
2 369 370
2 370 371
2 371 372
2 372 373
2 373 374
2 374 375
2 375 376
2 376 377
2 377 378
2 378 379
2 379 380
2 380 381
2 381 382
2 382 383
2 383 384
2 384 385
2 385 386
2 386 387
2 387 388
2 388 389
2 389 390
2 390 391
2 391 392
2 392 393
2 393 394
2 394 395
2 395 396
2 396 397
2 397 398
2 398 399
2 399 400
2 400 401
2 401 402
2 402 403
2 403 404
2 404 405
2 405 406
2 406 407
2 407 408
2 408 409
2 409 410
2 410 411
2 411 412
2 412 413
2 413 414
2 414 415
2 415 416
2 416 417
2 417 418
2 418 419
2 419 420
2 420 421
2 421 422
2 422 423
2 423 424
2 424 425
2 425 426
2 426 427
2 427 428
2 428 429
2 429 430
2 430 431
2 431 432
2 432 433
2 433 434
2 434 435
2 435 436
2 436 437
2 437 438
2 438 439
2 439 440
2 440 441
2 441 442
2 442 443
2 443 444
2 444 445
2 445 446
2 446 447
2 447 448
2 448 449
2 449 450
POINT_DATA 451
SCALARS vm float 1
LOOKUP_TABLE default
-8.154884e+01
-8.154884e+01
-8.154883e+01
-8.154881e+01
-8.154878e+01
-8.154875e+01
-8.154867e+01
-8.154863e+01
-8.154859e+01
-8.154854e+01
-8.154849e+01
-8.154843e+01
-8.154837e+01
-8.154831e+01
-8.154824e+01
-8.154817e+01
-8.154810e+01
-8.154802e+01
-8.154794e+01
-8.154785e+01
-8.154777e+01
-8.154768e+01
-8.154758e+01
-8.154749e+01
-8.154739e+01
-8.154728e+01
-8.154718e+01
-8.154707e+01
-8.154696e+01
-8.154685e+01
-8.154673e+01
-8.154661e+01
-8.154649e+01
-8.154637e+01
-8.154625e+01
-8.154612e+01
-8.154599e+01
-8.154586e+01
-8.154572e+01
-8.154559e+01
-8.154545e+01
-8.154531e+01
-8.154517e+01
-8.154503e+01
-8.154488e+01
-8.154473e+01
-8.154459e+01
-8.154444e+01
-8.154428e+01
-8.154413e+01
-8.154397e+01
-8.154382e+01
-8.154366e+01
-8.154350e+01
-8.154334e+01
-8.154317e+01
-8.154301e+01
-8.154284e+01
-8.154268e+01
-8.154251e+01
-8.154234e+01
-8.154217e+01
-8.154199e+01
-8.154182e+01
-8.154164e+01
-8.154147e+01
-8.154129e+01
-8.154111e+01
-8.154093e+01
-8.154075e+01
-8.154057e+01
-8.154038e+01
-8.154020e+01
-8.154001e+01
-8.153982e+01
-8.153964e+01
-8.153945e+01
-8.153926e+01
-8.153906e+01
-8.153887e+01
-8.153868e+01
-8.153848e+01
-8.153829e+01
-8.153809e+01
-8.153789e+01
-8.153769e+01
-8.153749e+01
-8.153729e+01
-8.153708e+01
-8.153688e+01
-8.153668e+01
-8.153647e+01
-8.153626e+01
-8.153605e+01
-8.153584e+01
-8.153563e+01
-8.153542e+01
-8.153521e+01
-8.153499e+01
-8.153478e+01
-8.153456e+01
-8.153434e+01
-8.153412e+01
-8.153390e+01
-8.153368e+01
-8.153346e+01
-8.153323e+01
-8.153301e+01
-8.153278e+01
-8.153255e+01
-8.153232e+01
-8.153209e+01
-8.153186e+01
-8.153162e+01
-8.153139e+01
-8.153115e+01
-8.153091e+01
-8.153067e+01
-8.153043e+01
-8.153019e+01
-8.152994e+01
-8.152969e+01
-8.152945e+01
-8.152920e+01
-8.152894e+01
-8.152869e+01
-8.152843e+01
-8.152818e+01
-8.152792e+01
-8.152766e+01
-8.152740e+01
-8.152713e+01
-8.152686e+01
-8.152660e+01
-8.152633e+01
-8.152605e+01
-8.152578e+01
-8.152550e+01
-8.152522e+01
-8.152494e+01
-8.152466e+01
-8.152437e+01
-8.152409e+01
-8.152380e+01
-8.152350e+01
-8.152321e+01
-8.152291e+01
-8.152261e+01
-8.152231e+01
-8.152200e+01
-8.152169e+01
-8.152151e+01
-8.152135e+01
-8.152119e+01
-8.152103e+01
-8.152087e+01
-8.152071e+01
-8.152055e+01
-8.152039e+01
-8.152022e+01
-8.152005e+01
-8.151989e+01
-8.151972e+01
-8.151955e+01
-8.151938e+01
-8.151920e+01
-8.151903e+01
-8.151886e+01
-8.151868e+01
-8.151851e+01
-8.151833e+01
-8.151815e+01
-8.151797e+01
-8.151779e+01
-8.151761e+01
-8.151743e+01
-8.151725e+01
-8.151707e+01
-8.151689e+01
-8.151670e+01
-8.151652e+01
-8.151633e+01
-8.151615e+01
-8.151596e+01
-8.151577e+01
-8.151559e+01
-8.151540e+01
-8.151521e+01
-8.151502e+01
-8.151483e+01
-8.151464e+01
-8.151445e+01
-8.151426e+01
-8.151407e+01
-8.151388e+01
-8.151369e+01
-8.151350e+01
-8.151331e+01
-8.151311e+01
-8.151292e+01
-8.151273e+01
-8.151254e+01
-8.151235e+01
-8.151215e+01
-8.151196e+01
-8.151177e+01
-8.151158e+01
-8.151138e+01
-8.151119e+01
-8.151100e+01
-8.151081e+01
-8.151062e+01
-8.151042e+01
-8.151023e+01
-8.151004e+01
-8.150985e+01
-8.150966e+01
-8.150947e+01
-8.150928e+01
-8.150909e+01
-8.150890e+01
-8.150871e+01
-8.150853e+01
-8.150834e+01
-8.150815e+01
-8.150796e+01
-8.150778e+01
-8.150759e+01
-8.150741e+01
-8.150723e+01
-8.150704e+01
-8.150686e+01
-8.150668e+01
-8.150650e+01
-8.150632e+01
-8.150614e+01
-8.150597e+01
-8.150579e+01
-8.150561e+01
-8.150544e+01
-8.150527e+01
-8.150510e+01
-8.150493e+01
-8.150476e+01
-8.150459e+01
-8.150442e+01
-8.150426e+01
-8.150410e+01
-8.150393e+01
-8.150377e+01
-8.150362e+01
-8.150346e+01
-8.150330e+01
-8.150315e+01
-8.150300e+01
-8.150285e+01
-8.150270e+01
-8.150256e+01
-8.150241e+01
-8.150227e+01
-8.150213e+01
-8.150200e+01
-8.150186e+01
-8.150173e+01
-8.150160e+01
-8.150148e+01
-8.150135e+01
-8.150123e+01
-8.150111e+01
-8.150099e+01
-8.150088e+01
-8.150077e+01
-8.150066e+01
-8.150056e+01
-8.150046e+01
-8.150036e+01
-8.150026e+01
-8.150017e+01
-8.150008e+01
-8.150000e+01
-8.149992e+01
-8.149984e+01
-8.149976e+01
-8.149969e+01
-8.149962e+01
-8.149956e+01
-8.149950e+01
-8.149945e+01
-8.149940e+01
-8.149935e+01
-8.149930e+01
-8.149926e+01
-8.149923e+01
-8.149920e+01
-8.149917e+01
-8.149915e+01
-8.149913e+01
-8.149911e+01
-8.149910e+01
-8.149910e+01
-8.149909e+01
-8.152151e+01
-8.152135e+01
-8.152119e+01
-8.152103e+01
-8.152087e+01
-8.152071e+01
-8.152055e+01
-8.152039e+01
-8.152022e+01
-8.152005e+01
-8.151989e+01
-8.151972e+01
-8.151955e+01
-8.151938e+01
-8.151920e+01
-8.151903e+01
-8.151886e+01
-8.151868e+01
-8.151851e+01
-8.151833e+01
-8.151815e+01
-8.151797e+01
-8.151779e+01
-8.151761e+01
-8.151743e+01
-8.151725e+01
-8.151707e+01
-8.151689e+01
-8.151670e+01
-8.151652e+01
-8.151633e+01
-8.151615e+01
-8.151596e+01
-8.151577e+01
-8.151559e+01
-8.151540e+01
-8.151521e+01
-8.151502e+01
-8.151483e+01
-8.151464e+01
-8.151445e+01
-8.151426e+01
-8.151407e+01
-8.151388e+01
-8.151369e+01
-8.151350e+01
-8.151331e+01
-8.151311e+01
-8.151292e+01
-8.151273e+01
-8.151254e+01
-8.151235e+01
-8.151215e+01
-8.151196e+01
-8.151177e+01
-8.151158e+01
-8.151138e+01
-8.151119e+01
-8.151100e+01
-8.151081e+01
-8.151062e+01
-8.151042e+01
-8.151023e+01
-8.151004e+01
-8.150985e+01
-8.150966e+01
-8.150947e+01
-8.150928e+01
-8.150909e+01
-8.150890e+01
-8.150871e+01
-8.150853e+01
-8.150834e+01
-8.150815e+01
-8.150796e+01
-8.150778e+01
-8.150759e+01
-8.150741e+01
-8.150723e+01
-8.150704e+01
-8.150686e+01
-8.150668e+01
-8.150650e+01
-8.150632e+01
-8.150614e+01
-8.150597e+01
-8.150579e+01
-8.150561e+01
-8.150544e+01
-8.150527e+01
-8.150510e+01
-8.150493e+01
-8.150476e+01
-8.150459e+01
-8.150442e+01
-8.150426e+01
-8.150410e+01
-8.150393e+01
-8.150377e+01
-8.150362e+01
-8.150346e+01
-8.150330e+01
-8.150315e+01
-8.150300e+01
-8.150285e+01
-8.150270e+01
-8.150256e+01
-8.150241e+01
-8.150227e+01
-8.150213e+01
-8.150200e+01
-8.150186e+01
-8.150173e+01
-8.150160e+01
-8.150148e+01
-8.150135e+01
-8.150123e+01
-8.150111e+01
-8.150099e+01
-8.150088e+01
-8.150077e+01
-8.150066e+01
-8.150056e+01
-8.150046e+01
-8.150036e+01
-8.150026e+01
-8.150017e+01
-8.150008e+01
-8.150000e+01
-8.149992e+01
-8.149984e+01
-8.149976e+01
-8.149969e+01
-8.149962e+01
-8.149956e+01
-8.149950e+01
-8.149945e+01
-8.149940e+01
-8.149935e+01
-8.149930e+01
-8.149926e+01
-8.149923e+01
-8.149920e+01
-8.149917e+01
-8.149915e+01
-8.149913e+01
-8.149911e+01
-8.149910e+01
-8.149910e+01
-8.149909e+01
