# vtk DataFile Version 3.0
Monodomain FEM
ASCII
DATASET POLYDATA
POINTS 451 float
0.000000e+00 0.000000e+00 0.000000e+00
6.667000e-03 0.000000e+00 0.000000e+00
1.333300e-02 0.000000e+00 0.000000e+00
2.000000e-02 0.000000e+00 0.000000e+00
2.666700e-02 0.000000e+00 0.000000e+00
3.333300e-02 0.000000e+00 0.000000e+00
4.000000e-02 0.000000e+00 0.000000e+00
4.666700e-02 0.000000e+00 0.000000e+00
5.333300e-02 0.000000e+00 0.000000e+00
6.000000e-02 0.000000e+00 0.000000e+00
6.666700e-02 0.000000e+00 0.000000e+00
7.333300e-02 0.000000e+00 0.000000e+00
8.000000e-02 0.000000e+00 0.000000e+00
8.666700e-02 0.000000e+00 0.000000e+00
9.333300e-02 0.000000e+00 0.000000e+00
1.000000e-01 0.000000e+00 0.000000e+00
1.066670e-01 0.000000e+00 0.000000e+00
1.133330e-01 0.000000e+00 0.000000e+00
1.200000e-01 0.000000e+00 0.000000e+00
1.266670e-01 0.000000e+00 0.000000e+00
1.333330e-01 0.000000e+00 0.000000e+00
1.400000e-01 0.000000e+00 0.000000e+00
1.466670e-01 0.000000e+00 0.000000e+00
1.533330e-01 0.000000e+00 0.000000e+00
1.600000e-01 0.000000e+00 0.000000e+00
1.666670e-01 0.000000e+00 0.000000e+00
1.733330e-01 0.000000e+00 0.000000e+00
1.800000e-01 0.000000e+00 0.000000e+00
1.866670e-01 0.000000e+00 0.000000e+00
1.933330e-01 0.000000e+00 0.000000e+00
2.000000e-01 0.000000e+00 0.000000e+00
2.066670e-01 0.000000e+00 0.000000e+00
2.133330e-01 0.000000e+00 0.000000e+00
2.200000e-01 0.000000e+00 0.000000e+00
2.266670e-01 0.000000e+00 0.000000e+00
2.333330e-01 0.000000e+00 0.000000e+00
2.400000e-01 0.000000e+00 0.000000e+00
2.466670e-01 0.000000e+00 0.000000e+00
2.533330e-01 0.000000e+00 0.000000e+00
2.600000e-01 0.000000e+00 0.000000e+00
2.666670e-01 0.000000e+00 0.000000e+00
2.733330e-01 0.000000e+00 0.000000e+00
2.800000e-01 0.000000e+00 0.000000e+00
2.866670e-01 0.000000e+00 0.000000e+00
2.933330e-01 0.000000e+00 0.000000e+00
3.000000e-01 0.000000e+00 0.000000e+00
3.066670e-01 0.000000e+00 0.000000e+00
3.133330e-01 0.000000e+00 0.000000e+00
3.200000e-01 0.000000e+00 0.000000e+00
3.266670e-01 0.000000e+00 0.000000e+00
3.333330e-01 0.000000e+00 0.000000e+00
3.400000e-01 0.000000e+00 0.000000e+00
3.466670e-01 0.000000e+00 0.000000e+00
3.533330e-01 0.000000e+00 0.000000e+00
3.600000e-01 0.000000e+00 0.000000e+00
3.666670e-01 0.000000e+00 0.000000e+00
3.733330e-01 0.000000e+00 0.000000e+00
3.800000e-01 0.000000e+00 0.000000e+00
3.866670e-01 0.000000e+00 0.000000e+00
3.933330e-01 0.000000e+00 0.000000e+00
4.000000e-01 0.000000e+00 0.000000e+00
4.066670e-01 0.000000e+00 0.000000e+00
4.133330e-01 0.000000e+00 0.000000e+00
4.200000e-01 0.000000e+00 0.000000e+00
4.266670e-01 0.000000e+00 0.000000e+00
4.333330e-01 0.000000e+00 0.000000e+00
4.400000e-01 0.000000e+00 0.000000e+00
4.466670e-01 0.000000e+00 0.000000e+00
4.533330e-01 0.000000e+00 0.000000e+00
4.600000e-01 0.000000e+00 0.000000e+00
4.666670e-01 0.000000e+00 0.000000e+00
4.733330e-01 0.000000e+00 0.000000e+00
4.800000e-01 0.000000e+00 0.000000e+00
4.866670e-01 0.000000e+00 0.000000e+00
4.933330e-01 0.000000e+00 0.000000e+00
5.000000e-01 0.000000e+00 0.000000e+00
5.066670e-01 0.000000e+00 0.000000e+00
5.133330e-01 0.000000e+00 0.000000e+00
5.200000e-01 0.000000e+00 0.000000e+00
5.266670e-01 0.000000e+00 0.000000e+00
5.333330e-01 0.000000e+00 0.000000e+00
5.400000e-01 0.000000e+00 0.000000e+00
5.466670e-01 0.000000e+00 0.000000e+00
5.533330e-01 0.000000e+00 0.000000e+00
5.600000e-01 0.000000e+00 0.000000e+00
5.666670e-01 0.000000e+00 0.000000e+00
5.733330e-01 0.000000e+00 0.000000e+00
5.800000e-01 0.000000e+00 0.000000e+00
5.866670e-01 0.000000e+00 0.000000e+00
5.933330e-01 0.000000e+00 0.000000e+00
6.000000e-01 0.000000e+00 0.000000e+00
6.066670e-01 0.000000e+00 0.000000e+00
6.133330e-01 0.000000e+00 0.000000e+00
6.200000e-01 0.000000e+00 0.000000e+00
6.266670e-01 0.000000e+00 0.000000e+00
6.333330e-01 0.000000e+00 0.000000e+00
6.400000e-01 0.000000e+00 0.000000e+00
6.466670e-01 0.000000e+00 0.000000e+00
6.533330e-01 0.000000e+00 0.000000e+00
6.600000e-01 0.000000e+00 0.000000e+00
6.666670e-01 0.000000e+00 0.000000e+00
6.733330e-01 0.000000e+00 0.000000e+00
6.800000e-01 0.000000e+00 0.000000e+00
6.866670e-01 0.000000e+00 0.000000e+00
6.933330e-01 0.000000e+00 0.000000e+00
7.000000e-01 0.000000e+00 0.000000e+00
7.066670e-01 0.000000e+00 0.000000e+00
7.133330e-01 0.000000e+00 0.000000e+00
7.200000e-01 0.000000e+00 0.000000e+00
7.266670e-01 0.000000e+00 0.000000e+00
7.333330e-01 0.000000e+00 0.000000e+00
7.400000e-01 0.000000e+00 0.000000e+00
7.466670e-01 0.000000e+00 0.000000e+00
7.533330e-01 0.000000e+00 0.000000e+00
7.600000e-01 0.000000e+00 0.000000e+00
7.666670e-01 0.000000e+00 0.000000e+00
7.733330e-01 0.000000e+00 0.000000e+00
7.800000e-01 0.000000e+00 0.000000e+00
7.866670e-01 0.000000e+00 0.000000e+00
7.933330e-01 0.000000e+00 0.000000e+00
8.000000e-01 0.000000e+00 0.000000e+00
8.066670e-01 0.000000e+00 0.000000e+00
8.133330e-01 0.000000e+00 0.000000e+00
8.200000e-01 0.000000e+00 0.000000e+00
8.266670e-01 0.000000e+00 0.000000e+00
8.333330e-01 0.000000e+00 0.000000e+00
8.400000e-01 0.000000e+00 0.000000e+00
8.466670e-01 0.000000e+00 0.000000e+00
8.533330e-01 0.000000e+00 0.000000e+00
8.600000e-01 0.000000e+00 0.000000e+00
8.666670e-01 0.000000e+00 0.000000e+00
8.733330e-01 0.000000e+00 0.000000e+00
8.800000e-01 0.000000e+00 0.000000e+00
8.866670e-01 0.000000e+00 0.000000e+00
8.933330e-01 0.000000e+00 0.000000e+00
9.000000e-01 0.000000e+00 0.000000e+00
9.066670e-01 0.000000e+00 0.000000e+00
9.133330e-01 0.000000e+00 0.000000e+00
9.200000e-01 0.000000e+00 0.000000e+00
9.266670e-01 0.000000e+00 0.000000e+00
9.333330e-01 0.000000e+00 0.000000e+00
9.400000e-01 0.000000e+00 0.000000e+00
9.466670e-01 0.000000e+00 0.000000e+00
9.533330e-01 0.000000e+00 0.000000e+00
9.600000e-01 0.000000e+00 0.000000e+00
9.666670e-01 0.000000e+00 0.000000e+00
9.733330e-01 0.000000e+00 0.000000e+00
9.800000e-01 0.000000e+00 0.000000e+00
9.866670e-01 0.000000e+00 0.000000e+00
9.933330e-01 0.000000e+00 0.000000e+00
1.000000e+00 0.000000e+00 0.000000e+00
1.000000e+00 -6.667000e-03 0.000000e+00
1.000000e+00 -1.333300e-02 0.000000e+00
1.000000e+00 -2.000000e-02 0.000000e+00
1.000000e+00 -2.666700e-02 0.000000e+00
1.000000e+00 -3.333300e-02 0.000000e+00
1.000000e+00 -4.000000e-02 0.000000e+00
1.000000e+00 -4.666700e-02 0.000000e+00
1.000000e+00 -5.333300e-02 0.000000e+00
1.000000e+00 -6.000000e-02 0.000000e+00
1.000000e+00 -6.666700e-02 0.000000e+00
1.000000e+00 -7.333300e-02 0.000000e+00
1.000000e+00 -8.000000e-02 0.000000e+00
1.000000e+00 -8.666700e-02 0.000000e+00
1.000000e+00 -9.333300e-02 0.000000e+00
1.000000e+00 -1.000000e-01 0.000000e+00
1.000000e+00 -1.066670e-01 0.000000e+00
1.000000e+00 -1.133330e-01 0.000000e+00
1.000000e+00 -1.200000e-01 0.000000e+00
1.000000e+00 -1.266670e-01 0.000000e+00
1.000000e+00 -1.333330e-01 0.000000e+00
1.000000e+00 -1.400000e-01 0.000000e+00
1.000000e+00 -1.466670e-01 0.000000e+00
1.000000e+00 -1.533330e-01 0.000000e+00
1.000000e+00 -1.600000e-01 0.000000e+00
1.000000e+00 -1.666670e-01 0.000000e+00
1.000000e+00 -1.733330e-01 0.000000e+00
1.000000e+00 -1.800000e-01 0.000000e+00
1.000000e+00 -1.866670e-01 0.000000e+00
1.000000e+00 -1.933330e-01 0.000000e+00
1.000000e+00 -2.000000e-01 0.000000e+00
1.000000e+00 -2.066670e-01 0.000000e+00
1.000000e+00 -2.133330e-01 0.000000e+00
1.000000e+00 -2.200000e-01 0.000000e+00
1.000000e+00 -2.266670e-01 0.000000e+00
1.000000e+00 -2.333330e-01 0.000000e+00
1.000000e+00 -2.400000e-01 0.000000e+00
1.000000e+00 -2.466670e-01 0.000000e+00
1.000000e+00 -2.533330e-01 0.000000e+00
1.000000e+00 -2.600000e-01 0.000000e+00
1.000000e+00 -2.666670e-01 0.000000e+00
1.000000e+00 -2.733330e-01 0.000000e+00
1.000000e+00 -2.800000e-01 0.000000e+00
1.000000e+00 -2.866670e-01 0.000000e+00
1.000000e+00 -2.933330e-01 0.000000e+00
1.000000e+00 -3.000000e-01 0.000000e+00
1.000000e+00 -3.066670e-01 0.000000e+00
1.000000e+00 -3.133330e-01 0.000000e+00
1.000000e+00 -3.200000e-01 0.000000e+00
1.000000e+00 -3.266670e-01 0.000000e+00
1.000000e+00 -3.333330e-01 0.000000e+00
1.000000e+00 -3.400000e-01 0.000000e+00
1.000000e+00 -3.466670e-01 0.000000e+00
1.000000e+00 -3.533330e-01 0.000000e+00
1.000000e+00 -3.600000e-01 0.000000e+00
1.000000e+00 -3.666670e-01 0.000000e+00
1.000000e+00 -3.733330e-01 0.000000e+00
1.000000e+00 -3.800000e-01 0.000000e+00
1.000000e+00 -3.866670e-01 0.000000e+00
1.000000e+00 -3.933330e-01 0.000000e+00
1.000000e+00 -4.000000e-01 0.000000e+00
1.000000e+00 -4.066670e-01 0.000000e+00
1.000000e+00 -4.133330e-01 0.000000e+00
1.000000e+00 -4.200000e-01 0.000000e+00
1.000000e+00 -4.266670e-01 0.000000e+00
1.000000e+00 -4.333330e-01 0.000000e+00
1.000000e+00 -4.400000e-01 0.000000e+00
1.000000e+00 -4.466670e-01 0.000000e+00
1.000000e+00 -4.533330e-01 0.000000e+00
1.000000e+00 -4.600000e-01 0.000000e+00
1.000000e+00 -4.666670e-01 0.000000e+00
1.000000e+00 -4.733330e-01 0.000000e+00
1.000000e+00 -4.800000e-01 0.000000e+00
1.000000e+00 -4.866670e-01 0.000000e+00
1.000000e+00 -4.933330e-01 0.000000e+00
1.000000e+00 -5.000000e-01 0.000000e+00
1.000000e+00 -5.066670e-01 0.000000e+00
1.000000e+00 -5.133330e-01 0.000000e+00
1.000000e+00 -5.200000e-01 0.000000e+00
1.000000e+00 -5.266670e-01 0.000000e+00
1.000000e+00 -5.333330e-01 0.000000e+00
1.000000e+00 -5.400000e-01 0.000000e+00
1.000000e+00 -5.466670e-01 0.000000e+00
1.000000e+00 -5.533330e-01 0.000000e+00
1.000000e+00 -5.600000e-01 0.000000e+00
1.000000e+00 -5.666670e-01 0.000000e+00
1.000000e+00 -5.733330e-01 0.000000e+00
1.000000e+00 -5.800000e-01 0.000000e+00
1.000000e+00 -5.866670e-01 0.000000e+00
1.000000e+00 -5.933330e-01 0.000000e+00
1.000000e+00 -6.000000e-01 0.000000e+00
1.000000e+00 -6.066670e-01 0.000000e+00
1.000000e+00 -6.133330e-01 0.000000e+00
1.000000e+00 -6.200000e-01 0.000000e+00
1.000000e+00 -6.266670e-01 0.000000e+00
1.000000e+00 -6.333330e-01 0.000000e+00
1.000000e+00 -6.400000e-01 0.000000e+00
1.000000e+00 -6.466670e-01 0.000000e+00
1.000000e+00 -6.533330e-01 0.000000e+00
1.000000e+00 -6.600000e-01 0.000000e+00
1.000000e+00 -6.666670e-01 0.000000e+00
1.000000e+00 -6.733330e-01 0.000000e+00
1.000000e+00 -6.800000e-01 0.000000e+00
1.000000e+00 -6.866670e-01 0.000000e+00
1.000000e+00 -6.933330e-01 0.000000e+00
1.000000e+00 -7.000000e-01 0.000000e+00
1.000000e+00 -7.066670e-01 0.000000e+00
1.000000e+00 -7.133330e-01 0.000000e+00
1.000000e+00 -7.200000e-01 0.000000e+00
1.000000e+00 -7.266670e-01 0.000000e+00
1.000000e+00 -7.333330e-01 0.000000e+00
1.000000e+00 -7.400000e-01 0.000000e+00
1.000000e+00 -7.466670e-01 0.000000e+00
1.000000e+00 -7.533330e-01 0.000000e+00
1.000000e+00 -7.600000e-01 0.000000e+00
1.000000e+00 -7.666670e-01 0.000000e+00
1.000000e+00 -7.733330e-01 0.000000e+00
1.000000e+00 -7.800000e-01 0.000000e+00
1.000000e+00 -7.866670e-01 0.000000e+00
1.000000e+00 -7.933330e-01 0.000000e+00
1.000000e+00 -8.000000e-01 0.000000e+00
1.000000e+00 -8.066670e-01 0.000000e+00
1.000000e+00 -8.133330e-01 0.000000e+00
1.000000e+00 -8.200000e-01 0.000000e+00
1.000000e+00 -8.266670e-01 0.000000e+00
1.000000e+00 -8.333330e-01 0.000000e+00
1.000000e+00 -8.400000e-01 0.000000e+00
1.000000e+00 -8.466670e-01 0.000000e+00
1.000000e+00 -8.533330e-01 0.000000e+00
1.000000e+00 -8.600000e-01 0.000000e+00
1.000000e+00 -8.666670e-01 0.000000e+00
1.000000e+00 -8.733330e-01 0.000000e+00
1.000000e+00 -8.800000e-01 0.000000e+00
1.000000e+00 -8.866670e-01 0.000000e+00
1.000000e+00 -8.933330e-01 0.000000e+00
1.000000e+00 -9.000000e-01 0.000000e+00
1.000000e+00 -9.066670e-01 0.000000e+00
1.000000e+00 -9.133330e-01 0.000000e+00
1.000000e+00 -9.200000e-01 0.000000e+00
1.000000e+00 -9.266670e-01 0.000000e+00
1.000000e+00 -9.333330e-01 0.000000e+00
1.000000e+00 -9.400000e-01 0.000000e+00
1.000000e+00 -9.466670e-01 0.000000e+00
1.000000e+00 -9.533330e-01 0.000000e+00
1.000000e+00 -9.600000e-01 0.000000e+00
1.000000e+00 -9.666670e-01 0.000000e+00
1.000000e+00 -9.733330e-01 0.000000e+00
1.000000e+00 -9.800000e-01 0.000000e+00
1.000000e+00 -9.866670e-01 0.000000e+00
1.000000e+00 -9.933330e-01 0.000000e+00
1.000000e+00 -1.000000e+00 0.000000e+00
1.000000e+00 6.667000e-03 0.000000e+00
1.000000e+00 1.333300e-02 0.000000e+00
1.000000e+00 2.000000e-02 0.000000e+00
1.000000e+00 2.666700e-02 0.000000e+00
1.000000e+00 3.333300e-02 0.000000e+00
1.000000e+00 4.000000e-02 0.000000e+00
1.000000e+00 4.666700e-02 0.000000e+00
1.000000e+00 5.333300e-02 0.000000e+00
1.000000e+00 6.000000e-02 0.000000e+00
1.000000e+00 6.666700e-02 0.000000e+00
1.000000e+00 7.333300e-02 0.000000e+00
1.000000e+00 8.000000e-02 0.000000e+00
1.000000e+00 8.666700e-02 0.000000e+00
1.000000e+00 9.333300e-02 0.000000e+00
1.000000e+00 1.000000e-01 0.000000e+00
1.000000e+00 1.066670e-01 0.000000e+00
1.000000e+00 1.133330e-01 0.000000e+00
1.000000e+00 1.200000e-01 0.000000e+00
1.000000e+00 1.266670e-01 0.000000e+00
1.000000e+00 1.333330e-01 0.000000e+00
1.000000e+00 1.400000e-01 0.000000e+00
1.000000e+00 1.466670e-01 0.000000e+00
1.000000e+00 1.533330e-01 0.000000e+00
1.000000e+00 1.600000e-01 0.000000e+00
1.000000e+00 1.666670e-01 0.000000e+00
1.000000e+00 1.733330e-01 0.000000e+00
1.000000e+00 1.800000e-01 0.000000e+00
1.000000e+00 1.866670e-01 0.000000e+00
1.000000e+00 1.933330e-01 0.000000e+00
1.000000e+00 2.000000e-01 0.000000e+00
1.000000e+00 2.066670e-01 0.000000e+00
1.000000e+00 2.133330e-01 0.000000e+00
1.000000e+00 2.200000e-01 0.000000e+00
1.000000e+00 2.266670e-01 0.000000e+00
1.000000e+00 2.333330e-01 0.000000e+00
1.000000e+00 2.400000e-01 0.000000e+00
1.000000e+00 2.466670e-01 0.000000e+00
1.000000e+00 2.533330e-01 0.000000e+00
1.000000e+00 2.600000e-01 0.000000e+00
1.000000e+00 2.666670e-01 0.000000e+00
1.000000e+00 2.733330e-01 0.000000e+00
1.000000e+00 2.800000e-01 0.000000e+00
1.000000e+00 2.866670e-01 0.000000e+00
1.000000e+00 2.933330e-01 0.000000e+00
1.000000e+00 3.000000e-01 0.000000e+00
1.000000e+00 3.066670e-01 0.000000e+00
1.000000e+00 3.133330e-01 0.000000e+00
1.000000e+00 3.200000e-01 0.000000e+00
1.000000e+00 3.266670e-01 0.000000e+00
1.000000e+00 3.333330e-01 0.000000e+00
1.000000e+00 3.400000e-01 0.000000e+00
1.000000e+00 3.466670e-01 0.000000e+00
1.000000e+00 3.533330e-01 0.000000e+00
1.000000e+00 3.600000e-01 0.000000e+00
1.000000e+00 3.666670e-01 0.000000e+00
1.000000e+00 3.733330e-01 0.000000e+00
1.000000e+00 3.800000e-01 0.000000e+00
1.000000e+00 3.866670e-01 0.000000e+00
1.000000e+00 3.933330e-01 0.000000e+00
1.000000e+00 4.000000e-01 0.000000e+00
1.000000e+00 4.066670e-01 0.000000e+00
1.000000e+00 4.133330e-01 0.000000e+00
1.000000e+00 4.200000e-01 0.000000e+00
1.000000e+00 4.266670e-01 0.000000e+00
1.000000e+00 4.333330e-01 0.000000e+00
1.000000e+00 4.400000e-01 0.000000e+00
1.000000e+00 4.466670e-01 0.000000e+00
1.000000e+00 4.533330e-01 0.000000e+00
1.000000e+00 4.600000e-01 0.000000e+00
1.000000e+00 4.666670e-01 0.000000e+00
1.000000e+00 4.733330e-01 0.000000e+00
1.000000e+00 4.800000e-01 0.000000e+00
1.000000e+00 4.866670e-01 0.000000e+00
1.000000e+00 4.933330e-01 0.000000e+00
1.000000e+00 5.000000e-01 0.000000e+00
1.000000e+00 5.066670e-01 0.000000e+00
1.000000e+00 5.133330e-01 0.000000e+00
1.000000e+00 5.200000e-01 0.000000e+00
1.000000e+00 5.266670e-01 0.000000e+00
1.000000e+00 5.333330e-01 0.000000e+00
1.000000e+00 5.400000e-01 0.000000e+00
1.000000e+00 5.466670e-01 0.000000e+00
1.000000e+00 5.533330e-01 0.000000e+00
1.000000e+00 5.600000e-01 0.000000e+00
1.000000e+00 5.666670e-01 0.000000e+00
1.000000e+00 5.733330e-01 0.000000e+00
1.000000e+00 5.800000e-01 0.000000e+00
1.000000e+00 5.866670e-01 0.000000e+00
1.000000e+00 5.933330e-01 0.000000e+00
1.000000e+00 6.000000e-01 0.000000e+00
1.000000e+00 6.066670e-01 0.000000e+00
1.000000e+00 6.133330e-01 0.000000e+00
1.000000e+00 6.200000e-01 0.000000e+00
1.000000e+00 6.266670e-01 0.000000e+00
1.000000e+00 6.333330e-01 0.000000e+00
1.000000e+00 6.400000e-01 0.000000e+00
1.000000e+00 6.466670e-01 0.000000e+00
1.000000e+00 6.533330e-01 0.000000e+00
1.000000e+00 6.600000e-01 0.000000e+00
1.000000e+00 6.666670e-01 0.000000e+00
1.000000e+00 6.733330e-01 0.000000e+00
1.000000e+00 6.800000e-01 0.000000e+00
1.000000e+00 6.866670e-01 0.000000e+00
1.000000e+00 6.933330e-01 0.000000e+00
1.000000e+00 7.000000e-01 0.000000e+00
1.000000e+00 7.066670e-01 0.000000e+00
1.000000e+00 7.133330e-01 0.000000e+00
1.000000e+00 7.200000e-01 0.000000e+00
1.000000e+00 7.266670e-01 0.000000e+00
1.000000e+00 7.333330e-01 0.000000e+00
1.000000e+00 7.400000e-01 0.000000e+00
1.000000e+00 7.466670e-01 0.000000e+00
1.000000e+00 7.533330e-01 0.000000e+00
1.000000e+00 7.600000e-01 0.000000e+00
1.000000e+00 7.666670e-01 0.000000e+00
1.000000e+00 7.733330e-01 0.000000e+00
1.000000e+00 7.800000e-01 0.000000e+00
1.000000e+00 7.866670e-01 0.000000e+00
1.000000e+00 7.933330e-01 0.000000e+00
1.000000e+00 8.000000e-01 0.000000e+00
1.000000e+00 8.066670e-01 0.000000e+00
1.000000e+00 8.133330e-01 0.000000e+00
1.000000e+00 8.200000e-01 0.000000e+00
1.000000e+00 8.266670e-01 0.000000e+00
1.000000e+00 8.333330e-01 0.000000e+00
1.000000e+00 8.400000e-01 0.000000e+00
1.000000e+00 8.466670e-01 0.000000e+00
1.000000e+00 8.533330e-01 0.000000e+00
1.000000e+00 8.600000e-01 0.000000e+00
1.000000e+00 8.666670e-01 0.000000e+00
1.000000e+00 8.733330e-01 0.000000e+00
1.000000e+00 8.800000e-01 0.000000e+00
1.000000e+00 8.866670e-01 0.000000e+00
1.000000e+00 8.933330e-01 0.000000e+00
1.000000e+00 9.000000e-01 0.000000e+00
1.000000e+00 9.066670e-01 0.000000e+00
1.000000e+00 9.133330e-01 0.000000e+00
1.000000e+00 9.200000e-01 0.000000e+00
1.000000e+00 9.266670e-01 0.000000e+00
1.000000e+00 9.333330e-01 0.000000e+00
1.000000e+00 9.400000e-01 0.000000e+00
1.000000e+00 9.466670e-01 0.000000e+00
1.000000e+00 9.533330e-01 0.000000e+00
1.000000e+00 9.600000e-01 0.000000e+00
1.000000e+00 9.666670e-01 0.000000e+00
1.000000e+00 9.733330e-01 0.000000e+00
1.000000e+00 9.800000e-01 0.000000e+00
1.000000e+00 9.866670e-01 0.000000e+00
1.000000e+00 9.933330e-01 0.000000e+00
1.000000e+00 1.000000e+00 0.000000e+00
LINES 451 1350
2 0 1
2 1 2
2 2 3
2 3 4
2 4 5
2 5 6
2 6 7
2 7 8
2 8 9
2 9 10
2 10 11
2 11 12
2 12 13
2 13 14
2 14 15
2 15 16
2 16 17
2 17 18
2 18 19
2 19 20
2 20 21
2 21 22
2 22 23
2 23 24
2 24 25
2 25 26
2 26 27
2 27 28
2 28 29
2 29 30
2 30 31
2 31 32
2 32 33
2 33 34
2 34 35
2 35 36
2 36 37
2 37 38
2 38 39
2 39 40
2 40 41
2 41 42
2 42 43
2 43 44
2 44 45
2 45 46
2 46 47
2 47 48
2 48 49
2 49 50
2 50 51
2 51 52
2 52 53
2 53 54
2 54 55
2 55 56
2 56 57
2 57 58
2 58 59
2 59 60
2 60 61
2 61 62
2 62 63
2 63 64
2 64 65
2 65 66
2 66 67
2 67 68
2 68 69
2 69 70
2 70 71
2 71 72
2 72 73
2 73 74
2 74 75
2 75 76
2 76 77
2 77 78
2 78 79
2 79 80
2 80 81
2 81 82
2 82 83
2 83 84
2 84 85
2 85 86
2 86 87
2 87 88
2 88 89
2 89 90
2 90 91
2 91 92
2 92 93
2 93 94
2 94 95
2 95 96
2 96 97
2 97 98
2 98 99
2 99 100
2 100 101
2 101 102
2 102 103
2 103 104
2 104 105
2 105 106
2 106 107
2 107 108
2 108 109
2 109 110
2 110 111
2 111 112
2 112 113
2 113 114
2 114 115
2 115 116
2 116 117
2 117 118
2 118 119
2 119 120
2 120 121
2 121 122
2 122 123
2 123 124
2 124 125
2 125 126
2 126 127
2 127 128
2 128 129
2 129 130
2 130 131
2 131 132
2 132 133
2 133 134
2 134 135
2 135 136
2 136 137
2 137 138
2 138 139
2 139 140
2 140 141
2 141 142
2 142 143
2 143 144
2 144 145
2 145 146
2 146 147
2 147 148
2 148 149
2 149 150
2 150 151
2 151 152
2 152 153
2 153 154
2 154 155
2 155 156
2 156 157
2 157 158
2 158 159
2 159 160
2 160 161
2 161 162
2 162 163
2 163 164
2 164 165
2 165 166
2 166 167
2 167 168
2 168 169
2 169 170
2 170 171
2 171 172
2 172 173
2 173 174
2 174 175
2 175 176
2 176 177
2 177 178
2 178 179
2 179 180
2 180 181
2 181 182
2 182 183
2 183 184
2 184 185
2 185 186
2 186 187
2 187 188
2 188 189
2 189 190
2 190 191
2 191 192
2 192 193
2 193 194
2 194 195
2 195 196
2 196 197
2 197 198
2 198 199
2 199 200
2 200 201
2 201 202
2 202 203
2 203 204
2 204 205
2 205 206
2 206 207
2 207 208
2 208 209
2 209 210
2 210 211
2 211 212
2 212 213
2 213 214
2 214 215
2 215 216
2 216 217
2 217 218
2 218 219
2 219 220
2 220 221
2 221 222
2 222 223
2 223 224
2 224 225
2 225 226
2 226 227
2 227 228
2 228 229
2 229 230
2 230 231
2 231 232
2 232 233
2 233 234
2 234 235
2 235 236
2 236 237
2 237 238
2 238 239
2 239 240
2 240 241
2 241 242
2 242 243
2 243 244
2 244 245
2 245 246
2 246 247
2 247 248
2 248 249
2 249 250
2 250 251
2 251 252
2 252 253
2 253 254
2 254 255
2 255 256
2 256 257
2 257 258
2 258 259
2 259 260
2 260 261
2 261 262
2 262 263
2 263 264
2 264 265
2 265 266
2 266 267
2 267 268
2 268 269
2 269 270
2 270 271
2 271 272
2 272 273
2 273 274
2 274 275
2 275 276
2 276 277
2 277 278
2 278 279
2 279 280
2 280 281
2 281 282
2 282 283
2 283 284
2 284 285
2 285 286
2 286 287
2 287 288
2 288 289
2 289 290
2 290 291
2 291 292
2 292 293
2 293 294
2 294 295
2 295 296
2 296 297
2 297 298
2 298 299
2 299 300
2 150 301
2 301 302
2 302 303
2 303 304
2 304 305
2 305 306
2 306 307
2 307 308
2 308 309
2 309 310
2 310 311
2 311 312
2 312 313
2 313 314
2 314 315
2 315 316
2 316 317
2 317 318
2 318 319
2 319 320
2 320 321
2 321 322
2 322 323
2 323 324
2 324 325
2 325 326
2 326 327
2 327 328
2 328 329
2 329 330
2 330 331
2 331 332
2 332 333
2 333 334
2 334 335
2 335 336
2 336 337
2 337 338
2 338 339
2 339 340
2 340 341
2 341 342
2 342 343
2 343 344
2 344 345
2 345 346
2 346 347
2 347 348
2 348 349
2 349 350
2 350 351
2 351 352
2 352 353
2 353 354
2 354 355
2 355 356
2 356 357
2 357 358
2 358 359
2 359 360
2 360 361
2 361 362
2 362 363
2 363 364
2 364 365
2 365 366
2 366 367
2 367 368
2 368 369
2 369 370
2 370 371
2 371 372
2 372 373
2 373 374
2 374 375
2 375 376
2 376 377
2 377 378
2 378 379
2 379 380
2 380 381
2 381 382
2 382 383
2 383 384
2 384 385
2 385 386
2 386 387
2 387 388
2 388 389
2 389 390
2 390 391
2 391 392
2 392 393
2 393 394
2 394 395
2 395 396
2 396 397
2 397 398
2 398 399
2 399 400
2 400 401
2 401 402
2 402 403
2 403 404
2 404 405
2 405 406
2 406 407
2 407 408
2 408 409
2 409 410
2 410 411
2 411 412
2 412 413
2 413 414
2 414 415
2 415 416
2 416 417
2 417 418
2 418 419
2 419 420
2 420 421
2 421 422
2 422 423
2 423 424
2 424 425
2 425 426
2 426 427
2 427 428
2 428 429
2 429 430
2 430 431
2 431 432
2 432 433
2 433 434
2 434 435
2 435 436
2 436 437
2 437 438
2 438 439
2 439 440
2 440 441
2 441 442
2 442 443
2 443 444
2 444 445
2 445 446
2 446 447
2 447 448
2 448 449
2 449 450
POINT_DATA 451
SCALARS vm float 1
LOOKUP_TABLE default
7.593053e-10
2.763662e-05
5.519566e-05
8.260019e-05
1.097735e-04
1.366397e-04
1.623785e-04
1.870249e-04
2.114000e-04
2.355084e-04
2.593527e-04
2.829354e-04
3.062593e-04
3.293273e-04
3.521425e-04
3.747079e-04
3.970270e-04
4.191030e-04
4.409392e-04
4.625388e-04
4.839053e-04
5.050419e-04
5.259518e-04
5.466381e-04
5.671042e-04
5.873530e-04
6.073875e-04
6.272109e-04
6.468260e-04
6.662357e-04
6.854428e-04
7.044502e-04
7.232605e-04
7.418764e-04
7.603006e-04
7.785357e-04
7.965842e-04
8.144487e-04
8.321316e-04
8.496355e-04
8.669628e-04
8.841157e-04
9.010968e-04
9.179084e-04
9.345527e-04
9.510320e-04
9.673487e-04
9.835049e-04
9.995029e-04
1.015345e-03
1.031033e-03
1.046569e-03
1.061956e-03
1.077195e-03
1.092288e-03
1.107238e-03
1.122047e-03
1.136716e-03
1.151248e-03
1.165644e-03
1.179907e-03
1.194038e-03
1.208039e-03
1.221912e-03
1.235660e-03
1.249283e-03
1.262784e-03
1.276164e-03
1.289426e-03
1.302570e-03
1.315599e-03
1.328515e-03
1.341319e-03
1.354013e-03
1.366598e-03
1.379076e-03
1.391450e-03
1.403719e-03
1.415887e-03
1.427955e-03
1.439923e-03
1.451795e-03
1.463571e-03
1.475252e-03
1.486842e-03
1.498339e-03
1.509748e-03
1.521068e-03
1.532301e-03
1.543449e-03
1.554513e-03
1.565495e-03
1.576395e-03
1.587216e-03
1.597958e-03
1.608622e-03
1.619211e-03
1.629725e-03
1.640166e-03
1.650535e-03
1.660833e-03
1.671060e-03
1.681219e-03
1.691311e-03
1.701336e-03
1.711295e-03
1.721190e-03
1.731021e-03
1.740790e-03
1.750496e-03
1.760142e-03
1.769727e-03
1.779253e-03
1.788719e-03
1.798127e-03
1.807477e-03
1.816769e-03
1.826004e-03
1.835182e-03
1.844302e-03
1.853365e-03
1.862370e-03
1.871317e-03
1.880206e-03
1.889035e-03
1.897805e-03
1.906512e-03
1.915157e-03
1.923737e-03
1.932251e-03
1.940695e-03
1.949066e-03
1.957363e-03
1.965580e-03
1.973713e-03
1.981757e-03
1.989707e-03
1.997555e-03
2.005293e-03
2.012914e-03
2.020405e-03
2.027757e-03
2.034955e-03
2.041986e-03
2.048840e-03
2.055546e-03
2.062356e-03
2.070861e-03
2.090430e-03
2.175806e-03
2.646147e-03
1.323073e-03
1.099975e-03
1.065473e-03
1.063191e-03
1.066296e-03
1.070186e-03
1.074073e-03
1.077823e-03
1.081416e-03
1.084849e-03
1.088122e-03
1.091237e-03
1.094197e-03
1.097002e-03
1.099653e-03
1.102151e-03
1.104499e-03
1.106695e-03
1.108743e-03
1.110641e-03
1.112390e-03
1.113992e-03
1.115447e-03
1.116754e-03
1.117915e-03
1.118930e-03
1.119799e-03
1.120521e-03
1.121099e-03
1.121530e-03
1.121816e-03
1.121957e-03
1.121953e-03
1.121803e-03
1.121509e-03
1.121069e-03
1.120484e-03
1.119753e-03
1.118877e-03
1.117856e-03
1.116690e-03
1.115377e-03
1.113919e-03
1.112314e-03
1.110564e-03
1.108667e-03
1.106623e-03
1.104432e-03
1.102094e-03
1.099608e-03
1.096974e-03
1.094191e-03
1.091260e-03
1.088180e-03
1.084950e-03
1.081570e-03
1.078039e-03
1.074358e-03
1.070524e-03
1.066539e-03
1.062400e-03
1.058109e-03
1.053663e-03
1.049063e-03
1.044307e-03
1.039395e-03
1.034327e-03
1.029101e-03
1.023716e-03
1.018173e-03
1.012470e-03
1.006606e-03
1.000580e-03
9.943921e-04
9.880408e-04
9.815251e-04
9.748441e-04
9.679970e-04
9.609826e-04
9.538000e-04
9.464482e-04
9.389261e-04
9.312326e-04
9.233666e-04
9.153270e-04
9.071128e-04
8.987227e-04
8.901557e-04
8.814106e-04
8.724861e-04
8.633812e-04
8.540945e-04
8.446250e-04
8.349715e-04
8.251326e-04
8.151073e-04
8.048943e-04
7.944925e-04
7.839007e-04
7.731177e-04
7.621424e-04
7.509736e-04
7.396104e-04
7.280516e-04
7.162963e-04
7.043434e-04
6.921923e-04
6.798419e-04
6.672915e-04
6.545406e-04
6.415885e-04
6.284348e-04
6.150791e-04
6.015214e-04
5.877615e-04
5.737997e-04
5.596362e-04
5.452716e-04
5.307067e-04
5.159425e-04
5.009804e-04
4.858218e-04
4.704688e-04
4.549237e-04
4.391889e-04
4.232675e-04
4.071630e-04
3.908791e-04
3.744201e-04
3.577907e-04
3.409960e-04
3.240415e-04
3.069333e-04
2.896777e-04
2.722816e-04
2.547521e-04
2.370967e-04
2.193233e-04
2.014401e-04
1.834554e-04
1.653778e-04
1.472163e-04
1.289797e-04
1.106771e-04
9.231792e-05
7.391135e-05
5.546681e-05
3.699375e-05
1.850175e-05
7.233571e-10
1.323073e-03
1.099975e-03
1.065473e-03
1.063191e-03
1.066296e-03
1.070186e-03
1.074073e-03
1.077823e-03
1.081416e-03
1.084849e-03
1.088122e-03
1.091237e-03
1.094197e-03
1.097002e-03
1.099653e-03
1.102151e-03
1.104499e-03
1.106695e-03
1.108743e-03
1.110641e-03
1.112390e-03
1.113992e-03
1.115447e-03
1.116754e-03
1.117915e-03
1.118930e-03
1.119799e-03
1.120521e-03
1.121099e-03
1.121530e-03
1.121816e-03
1.121957e-03
1.121953e-03
1.121803e-03
1.121509e-03
1.121069e-03
1.120484e-03
1.119753e-03
1.118877e-03
1.117856e-03
1.116690e-03
1.115377e-03
1.113919e-03
1.112314e-03
1.110564e-03
1.108667e-03
1.106623e-03
1.104432e-03
1.102094e-03
1.099608e-03
1.096974e-03
1.094191e-03
1.091260e-03
1.088180e-03
1.084950e-03
1.081570e-03
1.078039e-03
1.074358e-03
1.070524e-03
1.066539e-03
1.062400e-03
1.058109e-03
1.053663e-03
1.049063e-03
1.044307e-03
1.039395e-03
1.034327e-03
1.029101e-03
1.023716e-03
1.018173e-03
1.012470e-03
1.006606e-03
1.000580e-03
9.943921e-04
9.880408e-04
9.815251e-04
9.748441e-04
9.679970e-04
9.609826e-04
9.538000e-04
9.464482e-04
9.389261e-04
9.312326e-04
9.233666e-04
9.153270e-04
9.071128e-04
8.987227e-04
8.901557e-04
8.814106e-04
8.724861e-04
8.633812e-04
8.540945e-04
8.446250e-04
8.349715e-04
8.251326e-04
8.151073e-04
8.048943e-04
7.944925e-04
7.839007e-04
7.731177e-04
7.621424e-04
7.509736e-04
7.396104e-04
7.280516e-04
7.162963e-04
7.043434e-04
6.921923e-04
6.798419e-04
6.672915e-04
6.545406e-04
6.415885e-04
6.284348e-04
6.150791e-04
6.015214e-04
5.877615e-04
5.737997e-04
5.596362e-04
5.452716e-04
5.307067e-04
5.159425e-04
5.009804e-04
4.858218e-04
4.704688e-04
4.549237e-04
4.391889e-04
4.232675e-04
4.071630e-04
3.908791e-04
3.744201e-04
3.577907e-04
3.409960e-04
3.240415e-04
3.069333e-04
2.896777e-04
2.722816e-04
2.547521e-04
2.370967e-04
2.193233e-04
2.014401e-04
1.834554e-04
1.653778e-04
1.472163e-04
1.289797e-04
1.106771e-04
9.231792e-05
7.391135e-05
5.546681e-05
3.699375e-05
1.850175e-05
7.233583e-10
