# vtk DataFile Version 3.0
Monodomain FEM
ASCII
DATASET POLYDATA
POINTS 451 float
0.000000e+00 0.000000e+00 0.000000e+00
6.667000e-03 0.000000e+00 0.000000e+00
1.333300e-02 0.000000e+00 0.000000e+00
2.000000e-02 0.000000e+00 0.000000e+00
2.666700e-02 0.000000e+00 0.000000e+00
3.333300e-02 0.000000e+00 0.000000e+00
4.000000e-02 0.000000e+00 0.000000e+00
4.666700e-02 0.000000e+00 0.000000e+00
5.333300e-02 0.000000e+00 0.000000e+00
6.000000e-02 0.000000e+00 0.000000e+00
6.666700e-02 0.000000e+00 0.000000e+00
7.333300e-02 0.000000e+00 0.000000e+00
8.000000e-02 0.000000e+00 0.000000e+00
8.666700e-02 0.000000e+00 0.000000e+00
9.333300e-02 0.000000e+00 0.000000e+00
1.000000e-01 0.000000e+00 0.000000e+00
1.066670e-01 0.000000e+00 0.000000e+00
1.133330e-01 0.000000e+00 0.000000e+00
1.200000e-01 0.000000e+00 0.000000e+00
1.266670e-01 0.000000e+00 0.000000e+00
1.333330e-01 0.000000e+00 0.000000e+00
1.400000e-01 0.000000e+00 0.000000e+00
1.466670e-01 0.000000e+00 0.000000e+00
1.533330e-01 0.000000e+00 0.000000e+00
1.600000e-01 0.000000e+00 0.000000e+00
1.666670e-01 0.000000e+00 0.000000e+00
1.733330e-01 0.000000e+00 0.000000e+00
1.800000e-01 0.000000e+00 0.000000e+00
1.866670e-01 0.000000e+00 0.000000e+00
1.933330e-01 0.000000e+00 0.000000e+00
2.000000e-01 0.000000e+00 0.000000e+00
2.066670e-01 0.000000e+00 0.000000e+00
2.133330e-01 0.000000e+00 0.000000e+00
2.200000e-01 0.000000e+00 0.000000e+00
2.266670e-01 0.000000e+00 0.000000e+00
2.333330e-01 0.000000e+00 0.000000e+00
2.400000e-01 0.000000e+00 0.000000e+00
2.466670e-01 0.000000e+00 0.000000e+00
2.533330e-01 0.000000e+00 0.000000e+00
2.600000e-01 0.000000e+00 0.000000e+00
2.666670e-01 0.000000e+00 0.000000e+00
2.733330e-01 0.000000e+00 0.000000e+00
2.800000e-01 0.000000e+00 0.000000e+00
2.866670e-01 0.000000e+00 0.000000e+00
2.933330e-01 0.000000e+00 0.000000e+00
3.000000e-01 0.000000e+00 0.000000e+00
3.066670e-01 0.000000e+00 0.000000e+00
3.133330e-01 0.000000e+00 0.000000e+00
3.200000e-01 0.000000e+00 0.000000e+00
3.266670e-01 0.000000e+00 0.000000e+00
3.333330e-01 0.000000e+00 0.000000e+00
3.400000e-01 0.000000e+00 0.000000e+00
3.466670e-01 0.000000e+00 0.000000e+00
3.533330e-01 0.000000e+00 0.000000e+00
3.600000e-01 0.000000e+00 0.000000e+00
3.666670e-01 0.000000e+00 0.000000e+00
3.733330e-01 0.000000e+00 0.000000e+00
3.800000e-01 0.000000e+00 0.000000e+00
3.866670e-01 0.000000e+00 0.000000e+00
3.933330e-01 0.000000e+00 0.000000e+00
4.000000e-01 0.000000e+00 0.000000e+00
4.066670e-01 0.000000e+00 0.000000e+00
4.133330e-01 0.000000e+00 0.000000e+00
4.200000e-01 0.000000e+00 0.000000e+00
4.266670e-01 0.000000e+00 0.000000e+00
4.333330e-01 0.000000e+00 0.000000e+00
4.400000e-01 0.000000e+00 0.000000e+00
4.466670e-01 0.000000e+00 0.000000e+00
4.533330e-01 0.000000e+00 0.000000e+00
4.600000e-01 0.000000e+00 0.000000e+00
4.666670e-01 0.000000e+00 0.000000e+00
4.733330e-01 0.000000e+00 0.000000e+00
4.800000e-01 0.000000e+00 0.000000e+00
4.866670e-01 0.000000e+00 0.000000e+00
4.933330e-01 0.000000e+00 0.000000e+00
5.000000e-01 0.000000e+00 0.000000e+00
5.066670e-01 0.000000e+00 0.000000e+00
5.133330e-01 0.000000e+00 0.000000e+00
5.200000e-01 0.000000e+00 0.000000e+00
5.266670e-01 0.000000e+00 0.000000e+00
5.333330e-01 0.000000e+00 0.000000e+00
5.400000e-01 0.000000e+00 0.000000e+00
5.466670e-01 0.000000e+00 0.000000e+00
5.533330e-01 0.000000e+00 0.000000e+00
5.600000e-01 0.000000e+00 0.000000e+00
5.666670e-01 0.000000e+00 0.000000e+00
5.733330e-01 0.000000e+00 0.000000e+00
5.800000e-01 0.000000e+00 0.000000e+00
5.866670e-01 0.000000e+00 0.000000e+00
5.933330e-01 0.000000e+00 0.000000e+00
6.000000e-01 0.000000e+00 0.000000e+00
6.066670e-01 0.000000e+00 0.000000e+00
6.133330e-01 0.000000e+00 0.000000e+00
6.200000e-01 0.000000e+00 0.000000e+00
6.266670e-01 0.000000e+00 0.000000e+00
6.333330e-01 0.000000e+00 0.000000e+00
6.400000e-01 0.000000e+00 0.000000e+00
6.466670e-01 0.000000e+00 0.000000e+00
6.533330e-01 0.000000e+00 0.000000e+00
6.600000e-01 0.000000e+00 0.000000e+00
6.666670e-01 0.000000e+00 0.000000e+00
6.733330e-01 0.000000e+00 0.000000e+00
6.800000e-01 0.000000e+00 0.000000e+00
6.866670e-01 0.000000e+00 0.000000e+00
6.933330e-01 0.000000e+00 0.000000e+00
7.000000e-01 0.000000e+00 0.000000e+00
7.066670e-01 0.000000e+00 0.000000e+00
7.133330e-01 0.000000e+00 0.000000e+00
7.200000e-01 0.000000e+00 0.000000e+00
7.266670e-01 0.000000e+00 0.000000e+00
7.333330e-01 0.000000e+00 0.000000e+00
7.400000e-01 0.000000e+00 0.000000e+00
7.466670e-01 0.000000e+00 0.000000e+00
7.533330e-01 0.000000e+00 0.000000e+00
7.600000e-01 0.000000e+00 0.000000e+00
7.666670e-01 0.000000e+00 0.000000e+00
7.733330e-01 0.000000e+00 0.000000e+00
7.800000e-01 0.000000e+00 0.000000e+00
7.866670e-01 0.000000e+00 0.000000e+00
7.933330e-01 0.000000e+00 0.000000e+00
8.000000e-01 0.000000e+00 0.000000e+00
8.066670e-01 0.000000e+00 0.000000e+00
8.133330e-01 0.000000e+00 0.000000e+00
8.200000e-01 0.000000e+00 0.000000e+00
8.266670e-01 0.000000e+00 0.000000e+00
8.333330e-01 0.000000e+00 0.000000e+00
8.400000e-01 0.000000e+00 0.000000e+00
8.466670e-01 0.000000e+00 0.000000e+00
8.533330e-01 0.000000e+00 0.000000e+00
8.600000e-01 0.000000e+00 0.000000e+00
8.666670e-01 0.000000e+00 0.000000e+00
8.733330e-01 0.000000e+00 0.000000e+00
8.800000e-01 0.000000e+00 0.000000e+00
8.866670e-01 0.000000e+00 0.000000e+00
8.933330e-01 0.000000e+00 0.000000e+00
9.000000e-01 0.000000e+00 0.000000e+00
9.066670e-01 0.000000e+00 0.000000e+00
9.133330e-01 0.000000e+00 0.000000e+00
9.200000e-01 0.000000e+00 0.000000e+00
9.266670e-01 0.000000e+00 0.000000e+00
9.333330e-01 0.000000e+00 0.000000e+00
9.400000e-01 0.000000e+00 0.000000e+00
9.466670e-01 0.000000e+00 0.000000e+00
9.533330e-01 0.000000e+00 0.000000e+00
9.600000e-01 0.000000e+00 0.000000e+00
9.666670e-01 0.000000e+00 0.000000e+00
9.733330e-01 0.000000e+00 0.000000e+00
9.800000e-01 0.000000e+00 0.000000e+00
9.866670e-01 0.000000e+00 0.000000e+00
9.933330e-01 0.000000e+00 0.000000e+00
1.000000e+00 0.000000e+00 0.000000e+00
1.000000e+00 -6.667000e-03 0.000000e+00
1.000000e+00 -1.333300e-02 0.000000e+00
1.000000e+00 -2.000000e-02 0.000000e+00
1.000000e+00 -2.666700e-02 0.000000e+00
1.000000e+00 -3.333300e-02 0.000000e+00
1.000000e+00 -4.000000e-02 0.000000e+00
1.000000e+00 -4.666700e-02 0.000000e+00
1.000000e+00 -5.333300e-02 0.000000e+00
1.000000e+00 -6.000000e-02 0.000000e+00
1.000000e+00 -6.666700e-02 0.000000e+00
1.000000e+00 -7.333300e-02 0.000000e+00
1.000000e+00 -8.000000e-02 0.000000e+00
1.000000e+00 -8.666700e-02 0.000000e+00
1.000000e+00 -9.333300e-02 0.000000e+00
1.000000e+00 -1.000000e-01 0.000000e+00
1.000000e+00 -1.066670e-01 0.000000e+00
1.000000e+00 -1.133330e-01 0.000000e+00
1.000000e+00 -1.200000e-01 0.000000e+00
1.000000e+00 -1.266670e-01 0.000000e+00
1.000000e+00 -1.333330e-01 0.000000e+00
1.000000e+00 -1.400000e-01 0.000000e+00
1.000000e+00 -1.466670e-01 0.000000e+00
1.000000e+00 -1.533330e-01 0.000000e+00
1.000000e+00 -1.600000e-01 0.000000e+00
1.000000e+00 -1.666670e-01 0.000000e+00
1.000000e+00 -1.733330e-01 0.000000e+00
1.000000e+00 -1.800000e-01 0.000000e+00
1.000000e+00 -1.866670e-01 0.000000e+00
1.000000e+00 -1.933330e-01 0.000000e+00
1.000000e+00 -2.000000e-01 0.000000e+00
1.000000e+00 -2.066670e-01 0.000000e+00
1.000000e+00 -2.133330e-01 0.000000e+00
1.000000e+00 -2.200000e-01 0.000000e+00
1.000000e+00 -2.266670e-01 0.000000e+00
1.000000e+00 -2.333330e-01 0.000000e+00
1.000000e+00 -2.400000e-01 0.000000e+00
1.000000e+00 -2.466670e-01 0.000000e+00
1.000000e+00 -2.533330e-01 0.000000e+00
1.000000e+00 -2.600000e-01 0.000000e+00
1.000000e+00 -2.666670e-01 0.000000e+00
1.000000e+00 -2.733330e-01 0.000000e+00
1.000000e+00 -2.800000e-01 0.000000e+00
1.000000e+00 -2.866670e-01 0.000000e+00
1.000000e+00 -2.933330e-01 0.000000e+00
1.000000e+00 -3.000000e-01 0.000000e+00
1.000000e+00 -3.066670e-01 0.000000e+00
1.000000e+00 -3.133330e-01 0.000000e+00
1.000000e+00 -3.200000e-01 0.000000e+00
1.000000e+00 -3.266670e-01 0.000000e+00
1.000000e+00 -3.333330e-01 0.000000e+00
1.000000e+00 -3.400000e-01 0.000000e+00
1.000000e+00 -3.466670e-01 0.000000e+00
1.000000e+00 -3.533330e-01 0.000000e+00
1.000000e+00 -3.600000e-01 0.000000e+00
1.000000e+00 -3.666670e-01 0.000000e+00
1.000000e+00 -3.733330e-01 0.000000e+00
1.000000e+00 -3.800000e-01 0.000000e+00
1.000000e+00 -3.866670e-01 0.000000e+00
1.000000e+00 -3.933330e-01 0.000000e+00
1.000000e+00 -4.000000e-01 0.000000e+00
1.000000e+00 -4.066670e-01 0.000000e+00
1.000000e+00 -4.133330e-01 0.000000e+00
1.000000e+00 -4.200000e-01 0.000000e+00
1.000000e+00 -4.266670e-01 0.000000e+00
1.000000e+00 -4.333330e-01 0.000000e+00
1.000000e+00 -4.400000e-01 0.000000e+00
1.000000e+00 -4.466670e-01 0.000000e+00
1.000000e+00 -4.533330e-01 0.000000e+00
1.000000e+00 -4.600000e-01 0.000000e+00
1.000000e+00 -4.666670e-01 0.000000e+00
1.000000e+00 -4.733330e-01 0.000000e+00
1.000000e+00 -4.800000e-01 0.000000e+00
1.000000e+00 -4.866670e-01 0.000000e+00
1.000000e+00 -4.933330e-01 0.000000e+00
1.000000e+00 -5.000000e-01 0.000000e+00
1.000000e+00 -5.066670e-01 0.000000e+00
1.000000e+00 -5.133330e-01 0.000000e+00
1.000000e+00 -5.200000e-01 0.000000e+00
1.000000e+00 -5.266670e-01 0.000000e+00
1.000000e+00 -5.333330e-01 0.000000e+00
1.000000e+00 -5.400000e-01 0.000000e+00
1.000000e+00 -5.466670e-01 0.000000e+00
1.000000e+00 -5.533330e-01 0.000000e+00
1.000000e+00 -5.600000e-01 0.000000e+00
1.000000e+00 -5.666670e-01 0.000000e+00
1.000000e+00 -5.733330e-01 0.000000e+00
1.000000e+00 -5.800000e-01 0.000000e+00
1.000000e+00 -5.866670e-01 0.000000e+00
1.000000e+00 -5.933330e-01 0.000000e+00
1.000000e+00 -6.000000e-01 0.000000e+00
1.000000e+00 -6.066670e-01 0.000000e+00
1.000000e+00 -6.133330e-01 0.000000e+00
1.000000e+00 -6.200000e-01 0.000000e+00
1.000000e+00 -6.266670e-01 0.000000e+00
1.000000e+00 -6.333330e-01 0.000000e+00
1.000000e+00 -6.400000e-01 0.000000e+00
1.000000e+00 -6.466670e-01 0.000000e+00
1.000000e+00 -6.533330e-01 0.000000e+00
1.000000e+00 -6.600000e-01 0.000000e+00
1.000000e+00 -6.666670e-01 0.000000e+00
1.000000e+00 -6.733330e-01 0.000000e+00
1.000000e+00 -6.800000e-01 0.000000e+00
1.000000e+00 -6.866670e-01 0.000000e+00
1.000000e+00 -6.933330e-01 0.000000e+00
1.000000e+00 -7.000000e-01 0.000000e+00
1.000000e+00 -7.066670e-01 0.000000e+00
1.000000e+00 -7.133330e-01 0.000000e+00
1.000000e+00 -7.200000e-01 0.000000e+00
1.000000e+00 -7.266670e-01 0.000000e+00
1.000000e+00 -7.333330e-01 0.000000e+00
1.000000e+00 -7.400000e-01 0.000000e+00
1.000000e+00 -7.466670e-01 0.000000e+00
1.000000e+00 -7.533330e-01 0.000000e+00
1.000000e+00 -7.600000e-01 0.000000e+00
1.000000e+00 -7.666670e-01 0.000000e+00
1.000000e+00 -7.733330e-01 0.000000e+00
1.000000e+00 -7.800000e-01 0.000000e+00
1.000000e+00 -7.866670e-01 0.000000e+00
1.000000e+00 -7.933330e-01 0.000000e+00
1.000000e+00 -8.000000e-01 0.000000e+00
1.000000e+00 -8.066670e-01 0.000000e+00
1.000000e+00 -8.133330e-01 0.000000e+00
1.000000e+00 -8.200000e-01 0.000000e+00
1.000000e+00 -8.266670e-01 0.000000e+00
1.000000e+00 -8.333330e-01 0.000000e+00
1.000000e+00 -8.400000e-01 0.000000e+00
1.000000e+00 -8.466670e-01 0.000000e+00
1.000000e+00 -8.533330e-01 0.000000e+00
1.000000e+00 -8.600000e-01 0.000000e+00
1.000000e+00 -8.666670e-01 0.000000e+00
1.000000e+00 -8.733330e-01 0.000000e+00
1.000000e+00 -8.800000e-01 0.000000e+00
1.000000e+00 -8.866670e-01 0.000000e+00
1.000000e+00 -8.933330e-01 0.000000e+00
1.000000e+00 -9.000000e-01 0.000000e+00
1.000000e+00 -9.066670e-01 0.000000e+00
1.000000e+00 -9.133330e-01 0.000000e+00
1.000000e+00 -9.200000e-01 0.000000e+00
1.000000e+00 -9.266670e-01 0.000000e+00
1.000000e+00 -9.333330e-01 0.000000e+00
1.000000e+00 -9.400000e-01 0.000000e+00
1.000000e+00 -9.466670e-01 0.000000e+00
1.000000e+00 -9.533330e-01 0.000000e+00
1.000000e+00 -9.600000e-01 0.000000e+00
1.000000e+00 -9.666670e-01 0.000000e+00
1.000000e+00 -9.733330e-01 0.000000e+00
1.000000e+00 -9.800000e-01 0.000000e+00
1.000000e+00 -9.866670e-01 0.000000e+00
1.000000e+00 -9.933330e-01 0.000000e+00
1.000000e+00 -1.000000e+00 0.000000e+00
1.000000e+00 6.667000e-03 0.000000e+00
1.000000e+00 1.333300e-02 0.000000e+00
1.000000e+00 2.000000e-02 0.000000e+00
1.000000e+00 2.666700e-02 0.000000e+00
1.000000e+00 3.333300e-02 0.000000e+00
1.000000e+00 4.000000e-02 0.000000e+00
1.000000e+00 4.666700e-02 0.000000e+00
1.000000e+00 5.333300e-02 0.000000e+00
1.000000e+00 6.000000e-02 0.000000e+00
1.000000e+00 6.666700e-02 0.000000e+00
1.000000e+00 7.333300e-02 0.000000e+00
1.000000e+00 8.000000e-02 0.000000e+00
1.000000e+00 8.666700e-02 0.000000e+00
1.000000e+00 9.333300e-02 0.000000e+00
1.000000e+00 1.000000e-01 0.000000e+00
1.000000e+00 1.066670e-01 0.000000e+00
1.000000e+00 1.133330e-01 0.000000e+00
1.000000e+00 1.200000e-01 0.000000e+00
1.000000e+00 1.266670e-01 0.000000e+00
1.000000e+00 1.333330e-01 0.000000e+00
1.000000e+00 1.400000e-01 0.000000e+00
1.000000e+00 1.466670e-01 0.000000e+00
1.000000e+00 1.533330e-01 0.000000e+00
1.000000e+00 1.600000e-01 0.000000e+00
1.000000e+00 1.666670e-01 0.000000e+00
1.000000e+00 1.733330e-01 0.000000e+00
1.000000e+00 1.800000e-01 0.000000e+00
1.000000e+00 1.866670e-01 0.000000e+00
1.000000e+00 1.933330e-01 0.000000e+00
1.000000e+00 2.000000e-01 0.000000e+00
1.000000e+00 2.066670e-01 0.000000e+00
1.000000e+00 2.133330e-01 0.000000e+00
1.000000e+00 2.200000e-01 0.000000e+00
1.000000e+00 2.266670e-01 0.000000e+00
1.000000e+00 2.333330e-01 0.000000e+00
1.000000e+00 2.400000e-01 0.000000e+00
1.000000e+00 2.466670e-01 0.000000e+00
1.000000e+00 2.533330e-01 0.000000e+00
1.000000e+00 2.600000e-01 0.000000e+00
1.000000e+00 2.666670e-01 0.000000e+00
1.000000e+00 2.733330e-01 0.000000e+00
1.000000e+00 2.800000e-01 0.000000e+00
1.000000e+00 2.866670e-01 0.000000e+00
1.000000e+00 2.933330e-01 0.000000e+00
1.000000e+00 3.000000e-01 0.000000e+00
1.000000e+00 3.066670e-01 0.000000e+00
1.000000e+00 3.133330e-01 0.000000e+00
1.000000e+00 3.200000e-01 0.000000e+00
1.000000e+00 3.266670e-01 0.000000e+00
1.000000e+00 3.333330e-01 0.000000e+00
1.000000e+00 3.400000e-01 0.000000e+00
1.000000e+00 3.466670e-01 0.000000e+00
1.000000e+00 3.533330e-01 0.000000e+00
1.000000e+00 3.600000e-01 0.000000e+00
1.000000e+00 3.666670e-01 0.000000e+00
1.000000e+00 3.733330e-01 0.000000e+00
1.000000e+00 3.800000e-01 0.000000e+00
1.000000e+00 3.866670e-01 0.000000e+00
1.000000e+00 3.933330e-01 0.000000e+00
1.000000e+00 4.000000e-01 0.000000e+00
1.000000e+00 4.066670e-01 0.000000e+00
1.000000e+00 4.133330e-01 0.000000e+00
1.000000e+00 4.200000e-01 0.000000e+00
1.000000e+00 4.266670e-01 0.000000e+00
1.000000e+00 4.333330e-01 0.000000e+00
1.000000e+00 4.400000e-01 0.000000e+00
1.000000e+00 4.466670e-01 0.000000e+00
1.000000e+00 4.533330e-01 0.000000e+00
1.000000e+00 4.600000e-01 0.000000e+00
1.000000e+00 4.666670e-01 0.000000e+00
1.000000e+00 4.733330e-01 0.000000e+00
1.000000e+00 4.800000e-01 0.000000e+00
1.000000e+00 4.866670e-01 0.000000e+00
1.000000e+00 4.933330e-01 0.000000e+00
1.000000e+00 5.000000e-01 0.000000e+00
1.000000e+00 5.066670e-01 0.000000e+00
1.000000e+00 5.133330e-01 0.000000e+00
1.000000e+00 5.200000e-01 0.000000e+00
1.000000e+00 5.266670e-01 0.000000e+00
1.000000e+00 5.333330e-01 0.000000e+00
1.000000e+00 5.400000e-01 0.000000e+00
1.000000e+00 5.466670e-01 0.000000e+00
1.000000e+00 5.533330e-01 0.000000e+00
1.000000e+00 5.600000e-01 0.000000e+00
1.000000e+00 5.666670e-01 0.000000e+00
1.000000e+00 5.733330e-01 0.000000e+00
1.000000e+00 5.800000e-01 0.000000e+00
1.000000e+00 5.866670e-01 0.000000e+00
1.000000e+00 5.933330e-01 0.000000e+00
1.000000e+00 6.000000e-01 0.000000e+00
1.000000e+00 6.066670e-01 0.000000e+00
1.000000e+00 6.133330e-01 0.000000e+00
1.000000e+00 6.200000e-01 0.000000e+00
1.000000e+00 6.266670e-01 0.000000e+00
1.000000e+00 6.333330e-01 0.000000e+00
1.000000e+00 6.400000e-01 0.000000e+00
1.000000e+00 6.466670e-01 0.000000e+00
1.000000e+00 6.533330e-01 0.000000e+00
1.000000e+00 6.600000e-01 0.000000e+00
1.000000e+00 6.666670e-01 0.000000e+00
1.000000e+00 6.733330e-01 0.000000e+00
1.000000e+00 6.800000e-01 0.000000e+00
1.000000e+00 6.866670e-01 0.000000e+00
1.000000e+00 6.933330e-01 0.000000e+00
1.000000e+00 7.000000e-01 0.000000e+00
1.000000e+00 7.066670e-01 0.000000e+00
1.000000e+00 7.133330e-01 0.000000e+00
1.000000e+00 7.200000e-01 0.000000e+00
1.000000e+00 7.266670e-01 0.000000e+00
1.000000e+00 7.333330e-01 0.000000e+00
1.000000e+00 7.400000e-01 0.000000e+00
1.000000e+00 7.466670e-01 0.000000e+00
1.000000e+00 7.533330e-01 0.000000e+00
1.000000e+00 7.600000e-01 0.000000e+00
1.000000e+00 7.666670e-01 0.000000e+00
1.000000e+00 7.733330e-01 0.000000e+00
1.000000e+00 7.800000e-01 0.000000e+00
1.000000e+00 7.866670e-01 0.000000e+00
1.000000e+00 7.933330e-01 0.000000e+00
1.000000e+00 8.000000e-01 0.000000e+00
1.000000e+00 8.066670e-01 0.000000e+00
1.000000e+00 8.133330e-01 0.000000e+00
1.000000e+00 8.200000e-01 0.000000e+00
1.000000e+00 8.266670e-01 0.000000e+00
1.000000e+00 8.333330e-01 0.000000e+00
1.000000e+00 8.400000e-01 0.000000e+00
1.000000e+00 8.466670e-01 0.000000e+00
1.000000e+00 8.533330e-01 0.000000e+00
1.000000e+00 8.600000e-01 0.000000e+00
1.000000e+00 8.666670e-01 0.000000e+00
1.000000e+00 8.733330e-01 0.000000e+00
1.000000e+00 8.800000e-01 0.000000e+00
1.000000e+00 8.866670e-01 0.000000e+00
1.000000e+00 8.933330e-01 0.000000e+00
1.000000e+00 9.000000e-01 0.000000e+00
1.000000e+00 9.066670e-01 0.000000e+00
1.000000e+00 9.133330e-01 0.000000e+00
1.000000e+00 9.200000e-01 0.000000e+00
1.000000e+00 9.266670e-01 0.000000e+00
1.000000e+00 9.333330e-01 0.000000e+00
1.000000e+00 9.400000e-01 0.000000e+00
1.000000e+00 9.466670e-01 0.000000e+00
1.000000e+00 9.533330e-01 0.000000e+00
1.000000e+00 9.600000e-01 0.000000e+00
1.000000e+00 9.666670e-01 0.000000e+00
1.000000e+00 9.733330e-01 0.000000e+00
1.000000e+00 9.800000e-01 0.000000e+00
1.000000e+00 9.866670e-01 0.000000e+00
1.000000e+00 9.933330e-01 0.000000e+00
1.000000e+00 1.000000e+00 0.000000e+00
LINES 451 1350
2 0 1
2 1 2
2 2 3
2 3 4
2 4 5
2 5 6
2 6 7
2 7 8
2 8 9
2 9 10
2 10 11
2 11 12
2 12 13
2 13 14
2 14 15
2 15 16
2 16 17
2 17 18
2 18 19
2 19 20
2 20 21
2 21 22
2 22 23
2 23 24
2 24 25
2 25 26
2 26 27
2 27 28
2 28 29
2 29 30
2 30 31
2 31 32
2 32 33
2 33 34
2 34 35
2 35 36
2 36 37
2 37 38
2 38 39
2 39 40
2 40 41
2 41 42
2 42 43
2 43 44
2 44 45
2 45 46
2 46 47
2 47 48
2 48 49
2 49 50
2 50 51
2 51 52
2 52 53
2 53 54
2 54 55
2 55 56
2 56 57
2 57 58
2 58 59
2 59 60
2 60 61
2 61 62
2 62 63
2 63 64
2 64 65
2 65 66
2 66 67
2 67 68
2 68 69
2 69 70
2 70 71
2 71 72
2 72 73
2 73 74
2 74 75
2 75 76
2 76 77
2 77 78
2 78 79
2 79 80
2 80 81
2 81 82
2 82 83
2 83 84
2 84 85
2 85 86
2 86 87
2 87 88
2 88 89
2 89 90
2 90 91
2 91 92
2 92 93
2 93 94
2 94 95
2 95 96
2 96 97
2 97 98
2 98 99
2 99 100
2 100 101
2 101 102
2 102 103
2 103 104
2 104 105
2 105 106
2 106 107
2 107 108
2 108 109
2 109 110
2 110 111
2 111 112
2 112 113
2 113 114
2 114 115
2 115 116
2 116 117
2 117 118
2 118 119
2 119 120
2 120 121
2 121 122
2 122 123
2 123 124
2 124 125
2 125 126
2 126 127
2 127 128
2 128 129
2 129 130
2 130 131
2 131 132
2 132 133
2 133 134
2 134 135
2 135 136
2 136 137
2 137 138
2 138 139
2 139 140
2 140 141
2 141 142
2 142 143
2 143 144
2 144 145
2 145 146
2 146 147
2 147 148
2 148 149
2 149 150
2 150 151
2 151 152
2 152 153
2 153 154
2 154 155
2 155 156
2 156 157
2 157 158
2 158 159
2 159 160
2 160 161
2 161 162
2 162 163
2 163 164
2 164 165
2 165 166
2 166 167
2 167 168
2 168 169
2 169 170
2 170 171
2 171 172
2 172 173
2 173 174
2 174 175
2 175 176
2 176 177
2 177 178
2 178 179
2 179 180
2 180 181
2 181 182
2 182 183
2 183 184
2 184 185
2 185 186
2 186 187
2 187 188
2 188 189
2 189 190
2 190 191
2 191 192
2 192 193
2 193 194
2 194 195
2 195 196
2 196 197
2 197 198
2 198 199
2 199 200
2 200 201
2 201 202
2 202 203
2 203 204
2 204 205
2 205 206
2 206 207
2 207 208
2 208 209
2 209 210
2 210 211
2 211 212
2 212 213
2 213 214
2 214 215
2 215 216
2 216 217
2 217 218
2 218 219
2 219 220
2 220 221
2 221 222
2 222 223
2 223 224
2 224 225
2 225 226
2 226 227
2 227 228
2 228 229
2 229 230
2 230 231
2 231 232
2 232 233
2 233 234
2 234 235
2 235 236
2 236 237
2 237 238
2 238 239
2 239 240
2 240 241
2 241 242
2 242 243
2 243 244
2 244 245
2 245 246
2 246 247
2 247 248
2 248 249
2 249 250
2 250 251
2 251 252
2 252 253
2 253 254
2 254 255
2 255 256
2 256 257
2 257 258
2 258 259
2 259 260
2 260 261
2 261 262
2 262 263
2 263 264
2 264 265
2 265 266
2 266 267
2 267 268
2 268 269
2 269 270
2 270 271
2 271 272
2 272 273
2 273 274
2 274 275
2 275 276
2 276 277
2 277 278
2 278 279
2 279 280
2 280 281
2 281 282
2 282 283
2 283 284
2 284 285
2 285 286
2 286 287
2 287 288
2 288 289
2 289 290
2 290 291
2 291 292
2 292 293
2 293 294
2 294 295
2 295 296
2 296 297
2 297 298
2 298 299
2 299 300
2 150 301
2 301 302
2 302 303
2 303 304
2 304 305
2 305 306
2 306 307
2 307 308
2 308 309
2 309 310
2 310 311
2 311 312
2 312 313
2 313 314
2 314 315
2 315 316
2 316 317
2 317 318
2 318 319
2 319 320
2 320 321
2 321 322
2 322 323
2 323 324
2 324 325
2 325 326
2 326 327
2 327 328
2 328 329
2 329 330
2 330 331
2 331 332
2 332 333
2 333 334
2 334 335
2 335 336
2 336 337
2 337 338
2 338 339
2 339 340
2 340 341
2 341 342
2 342 343
2 343 344
2 344 345
2 345 346
2 346 347
2 347 348
2 348 349
2 349 350
2 350 351
2 351 352
2 352 353
2 353 354
2 354 355
2 355 356
2 356 357
2 357 358
2 358 359
2 359 360
2 360 361
2 361 362
2 362 363
2 363 364
2 364 365
2 365 366
2 366 367
2 367 368
2 368 369
2 369 370
2 370 371
2 371 372
2 372 373
2 373 374
2 374 375
2 375 376
2 376 377
2 377 378
2 378 379
2 379 380
2 380 381
2 381 382
2 382 383
2 383 384
2 384 385
2 385 386
2 386 387
2 387 388
2 388 389
2 389 390
2 390 391
2 391 392
2 392 393
2 393 394
2 394 395
2 395 396
2 396 397
2 397 398
2 398 399
2 399 400
2 400 401
2 401 402
2 402 403
2 403 404
2 404 405
2 405 406
2 406 407
2 407 408
2 408 409
2 409 410
2 410 411
2 411 412
2 412 413
2 413 414
2 414 415
2 415 416
2 416 417
2 417 418
2 418 419
2 419 420
2 420 421
2 421 422
2 422 423
2 423 424
2 424 425
2 425 426
2 426 427
2 427 428
2 428 429
2 429 430
2 430 431
2 431 432
2 432 433
2 433 434
2 434 435
2 435 436
2 436 437
2 437 438
2 438 439
2 439 440
2 440 441
2 441 442
2 442 443
2 443 444
2 444 445
2 445 446
2 446 447
2 447 448
2 448 449
2 449 450
POINT_DATA 451
SCALARS vm float 1
LOOKUP_TABLE default
9.127645e-10
4.806448e-05
9.591168e-05
1.433253e-04
1.900903e-04
2.359944e-04
2.786946e-04
3.182967e-04
3.571555e-04
3.952880e-04
4.327058e-04
4.694202e-04
5.054428e-04
5.407859e-04
5.754620e-04
6.094838e-04
6.428642e-04
6.756161e-04
7.077523e-04
7.392859e-04
7.702293e-04
8.005954e-04
8.303965e-04
8.596448e-04
8.883524e-04
9.165312e-04
9.441927e-04
9.713485e-04
9.980097e-04
1.024187e-03
1.049892e-03
1.075135e-03
1.099926e-03
1.124275e-03
1.148193e-03
1.171690e-03
1.194775e-03
1.217457e-03
1.239747e-03
1.261654e-03
1.283187e-03
1.304354e-03
1.325166e-03
1.345630e-03
1.365755e-03
1.385551e-03
1.405025e-03
1.424186e-03
1.443042e-03
1.461602e-03
1.479873e-03
1.497864e-03
1.515581e-03
1.533034e-03
1.550230e-03
1.567176e-03
1.583880e-03
1.600350e-03
1.616592e-03
1.632614e-03
1.648423e-03
1.664026e-03
1.679431e-03
1.694643e-03
1.709671e-03
1.724521e-03
1.739199e-03
1.753712e-03
1.768068e-03
1.782271e-03
1.796329e-03
1.810248e-03
1.824035e-03
1.837696e-03
1.851236e-03
1.864662e-03
1.877980e-03
1.891197e-03
1.904317e-03
1.917348e-03
1.930294e-03
1.943162e-03
1.955957e-03
1.968685e-03
1.981351e-03
1.993962e-03
2.006523e-03
2.019039e-03
2.031515e-03
2.043957e-03
2.056371e-03
2.068761e-03
2.081133e-03
2.093492e-03
2.105842e-03
2.118190e-03
2.130540e-03
2.142896e-03
2.155265e-03
2.167650e-03
2.180056e-03
2.192488e-03
2.204950e-03
2.217447e-03
2.229983e-03
2.242563e-03
2.255191e-03
2.267870e-03
2.280605e-03
2.293399e-03
2.306257e-03
2.319181e-03
2.332175e-03
2.345243e-03
2.358386e-03
2.371609e-03
2.384913e-03
2.398301e-03
2.411774e-03
2.425335e-03
2.438985e-03
2.452724e-03
2.466554e-03
2.480473e-03
2.494483e-03
2.508581e-03
2.522766e-03
2.537036e-03
2.551387e-03
2.565815e-03
2.580315e-03
2.594882e-03
2.609507e-03
2.624181e-03
2.638895e-03
2.653635e-03
2.668387e-03
2.683134e-03
2.697857e-03
2.712533e-03
2.727135e-03
2.741633e-03
2.755991e-03
2.770173e-03
2.784141e-03
2.797911e-03
2.811807e-03
2.828013e-03
2.859552e-03
2.982668e-03
3.642046e-03
1.821023e-03
1.517142e-03
1.473316e-03
1.473847e-03
1.481732e-03
1.490625e-03
1.499443e-03
1.508006e-03
1.516288e-03
1.524289e-03
1.532015e-03
1.539470e-03
1.546660e-03
1.553589e-03
1.560262e-03
1.566683e-03
1.572855e-03
1.578782e-03
1.584466e-03
1.589911e-03
1.595119e-03
1.600093e-03
1.604833e-03
1.609342e-03
1.613622e-03
1.617674e-03
1.621500e-03
1.625100e-03
1.628475e-03
1.631628e-03
1.634558e-03
1.637266e-03
1.639752e-03
1.642019e-03
1.644065e-03
1.645892e-03
1.647499e-03
1.648887e-03
1.650057e-03
1.651007e-03
1.651738e-03
1.652250e-03
1.652543e-03
1.652617e-03
1.652470e-03
1.652103e-03
1.651515e-03
1.650706e-03
1.649674e-03
1.648420e-03
1.646941e-03
1.645238e-03
1.643308e-03
1.641152e-03
1.638767e-03
1.636153e-03
1.633308e-03
1.630230e-03
1.626918e-03
1.623370e-03
1.619585e-03
1.615561e-03
1.611295e-03
1.606787e-03
1.602033e-03
1.597031e-03
1.591779e-03
1.586276e-03
1.580517e-03
1.574502e-03
1.568226e-03
1.561688e-03
1.554885e-03
1.547813e-03
1.540470e-03
1.532853e-03
1.524958e-03
1.516783e-03
1.508323e-03
1.499576e-03
1.490538e-03
1.481205e-03
1.471574e-03
1.461641e-03
1.451402e-03
1.440853e-03
1.429990e-03
1.418810e-03
1.407307e-03
1.395479e-03
1.383320e-03
1.370826e-03
1.357994e-03
1.344818e-03
1.331294e-03
1.317418e-03
1.303185e-03
1.288591e-03
1.273631e-03
1.258301e-03
1.242596e-03
1.226511e-03
1.210043e-03
1.193187e-03
1.175938e-03
1.158293e-03
1.140247e-03
1.121796e-03
1.102936e-03
1.083665e-03
1.063978e-03
1.043872e-03
1.023344e-03
1.002393e-03
9.810147e-04
9.592086e-04
9.369731e-04
9.143074e-04
8.912111e-04
8.676847e-04
8.437292e-04
8.193462e-04
7.945385e-04
7.693094e-04
7.436631e-04
7.176050e-04
6.911413e-04
6.642794e-04
6.370276e-04
6.093954e-04
5.813934e-04
5.530334e-04
5.243280e-04
4.952913e-04
4.659379e-04
4.362838e-04
4.063455e-04
3.761406e-04
3.456872e-04
3.150042e-04
2.841110e-04
2.530276e-04
2.217741e-04
1.903712e-04
1.588399e-04
1.272011e-04
9.547633e-05
6.368689e-05
3.185444e-05
1.225945e-09
1.821023e-03
1.517142e-03
1.473316e-03
1.473847e-03
1.481732e-03
1.490625e-03
1.499443e-03
1.508006e-03
1.516288e-03
1.524289e-03
1.532015e-03
1.539470e-03
1.546660e-03
1.553589e-03
1.560262e-03
1.566683e-03
1.572855e-03
1.578782e-03
1.584466e-03
1.589911e-03
1.595119e-03
1.600093e-03
1.604833e-03
1.609342e-03
1.613622e-03
1.617674e-03
1.621500e-03
1.625100e-03
1.628475e-03
1.631628e-03
1.634558e-03
1.637266e-03
1.639752e-03
1.642019e-03
1.644065e-03
1.645892e-03
1.647499e-03
1.648887e-03
1.650057e-03
1.651007e-03
1.651738e-03
1.652250e-03
1.652543e-03
1.652617e-03
1.652470e-03
1.652103e-03
1.651515e-03
1.650706e-03
1.649674e-03
1.648420e-03
1.646941e-03
1.645238e-03
1.643308e-03
1.641152e-03
1.638767e-03
1.636153e-03
1.633308e-03
1.630230e-03
1.626918e-03
1.623370e-03
1.619585e-03
1.615561e-03
1.611295e-03
1.606787e-03
1.602033e-03
1.597031e-03
1.591779e-03
1.586276e-03
1.580517e-03
1.574502e-03
1.568226e-03
1.561688e-03
1.554885e-03
1.547813e-03
1.540470e-03
1.532853e-03
1.524958e-03
1.516783e-03
1.508323e-03
1.499576e-03
1.490538e-03
1.481205e-03
1.471574e-03
1.461641e-03
1.451402e-03
1.440853e-03
1.429990e-03
1.418810e-03
1.407307e-03
1.395479e-03
1.383320e-03
1.370826e-03
1.357994e-03
1.344818e-03
1.331294e-03
1.317418e-03
1.303185e-03
1.288591e-03
1.273631e-03
1.258301e-03
1.242596e-03
1.226511e-03
1.210043e-03
1.193187e-03
1.175938e-03
1.158293e-03
1.140247e-03
1.121796e-03
1.102936e-03
1.083665e-03
1.063978e-03
1.043872e-03
1.023344e-03
1.002393e-03
9.810147e-04
9.592086e-04
9.369731e-04
9.143074e-04
8.912111e-04
8.676847e-04
8.437292e-04
8.193462e-04
7.945385e-04
7.693094e-04
7.436631e-04
7.176050e-04
6.911413e-04
6.642794e-04
6.370276e-04
6.093954e-04
5.813934e-04
5.530334e-04
5.243280e-04
4.952913e-04
4.659379e-04
4.362838e-04
4.063455e-04
3.761406e-04
3.456872e-04
3.150042e-04
2.841110e-04
2.530276e-04
2.217741e-04
1.903712e-04
1.588399e-04
1.272011e-04
9.547633e-05
6.368689e-05
3.185444e-05
1.225945e-09
