# vtk DataFile Version 3.0
Monodomain FEM
ASCII
DATASET POLYDATA
POINTS 451 float
0.000000e+00 0.000000e+00 0.000000e+00
6.667000e-03 0.000000e+00 0.000000e+00
1.333300e-02 0.000000e+00 0.000000e+00
2.000000e-02 0.000000e+00 0.000000e+00
2.666700e-02 0.000000e+00 0.000000e+00
3.333300e-02 0.000000e+00 0.000000e+00
4.000000e-02 0.000000e+00 0.000000e+00
4.666700e-02 0.000000e+00 0.000000e+00
5.333300e-02 0.000000e+00 0.000000e+00
6.000000e-02 0.000000e+00 0.000000e+00
6.666700e-02 0.000000e+00 0.000000e+00
7.333300e-02 0.000000e+00 0.000000e+00
8.000000e-02 0.000000e+00 0.000000e+00
8.666700e-02 0.000000e+00 0.000000e+00
9.333300e-02 0.000000e+00 0.000000e+00
1.000000e-01 0.000000e+00 0.000000e+00
1.066670e-01 0.000000e+00 0.000000e+00
1.133330e-01 0.000000e+00 0.000000e+00
1.200000e-01 0.000000e+00 0.000000e+00
1.266670e-01 0.000000e+00 0.000000e+00
1.333330e-01 0.000000e+00 0.000000e+00
1.400000e-01 0.000000e+00 0.000000e+00
1.466670e-01 0.000000e+00 0.000000e+00
1.533330e-01 0.000000e+00 0.000000e+00
1.600000e-01 0.000000e+00 0.000000e+00
1.666670e-01 0.000000e+00 0.000000e+00
1.733330e-01 0.000000e+00 0.000000e+00
1.800000e-01 0.000000e+00 0.000000e+00
1.866670e-01 0.000000e+00 0.000000e+00
1.933330e-01 0.000000e+00 0.000000e+00
2.000000e-01 0.000000e+00 0.000000e+00
2.066670e-01 0.000000e+00 0.000000e+00
2.133330e-01 0.000000e+00 0.000000e+00
2.200000e-01 0.000000e+00 0.000000e+00
2.266670e-01 0.000000e+00 0.000000e+00
2.333330e-01 0.000000e+00 0.000000e+00
2.400000e-01 0.000000e+00 0.000000e+00
2.466670e-01 0.000000e+00 0.000000e+00
2.533330e-01 0.000000e+00 0.000000e+00
2.600000e-01 0.000000e+00 0.000000e+00
2.666670e-01 0.000000e+00 0.000000e+00
2.733330e-01 0.000000e+00 0.000000e+00
2.800000e-01 0.000000e+00 0.000000e+00
2.866670e-01 0.000000e+00 0.000000e+00
2.933330e-01 0.000000e+00 0.000000e+00
3.000000e-01 0.000000e+00 0.000000e+00
3.066670e-01 0.000000e+00 0.000000e+00
3.133330e-01 0.000000e+00 0.000000e+00
3.200000e-01 0.000000e+00 0.000000e+00
3.266670e-01 0.000000e+00 0.000000e+00
3.333330e-01 0.000000e+00 0.000000e+00
3.400000e-01 0.000000e+00 0.000000e+00
3.466670e-01 0.000000e+00 0.000000e+00
3.533330e-01 0.000000e+00 0.000000e+00
3.600000e-01 0.000000e+00 0.000000e+00
3.666670e-01 0.000000e+00 0.000000e+00
3.733330e-01 0.000000e+00 0.000000e+00
3.800000e-01 0.000000e+00 0.000000e+00
3.866670e-01 0.000000e+00 0.000000e+00
3.933330e-01 0.000000e+00 0.000000e+00
4.000000e-01 0.000000e+00 0.000000e+00
4.066670e-01 0.000000e+00 0.000000e+00
4.133330e-01 0.000000e+00 0.000000e+00
4.200000e-01 0.000000e+00 0.000000e+00
4.266670e-01 0.000000e+00 0.000000e+00
4.333330e-01 0.000000e+00 0.000000e+00
4.400000e-01 0.000000e+00 0.000000e+00
4.466670e-01 0.000000e+00 0.000000e+00
4.533330e-01 0.000000e+00 0.000000e+00
4.600000e-01 0.000000e+00 0.000000e+00
4.666670e-01 0.000000e+00 0.000000e+00
4.733330e-01 0.000000e+00 0.000000e+00
4.800000e-01 0.000000e+00 0.000000e+00
4.866670e-01 0.000000e+00 0.000000e+00
4.933330e-01 0.000000e+00 0.000000e+00
5.000000e-01 0.000000e+00 0.000000e+00
5.066670e-01 0.000000e+00 0.000000e+00
5.133330e-01 0.000000e+00 0.000000e+00
5.200000e-01 0.000000e+00 0.000000e+00
5.266670e-01 0.000000e+00 0.000000e+00
5.333330e-01 0.000000e+00 0.000000e+00
5.400000e-01 0.000000e+00 0.000000e+00
5.466670e-01 0.000000e+00 0.000000e+00
5.533330e-01 0.000000e+00 0.000000e+00
5.600000e-01 0.000000e+00 0.000000e+00
5.666670e-01 0.000000e+00 0.000000e+00
5.733330e-01 0.000000e+00 0.000000e+00
5.800000e-01 0.000000e+00 0.000000e+00
5.866670e-01 0.000000e+00 0.000000e+00
5.933330e-01 0.000000e+00 0.000000e+00
6.000000e-01 0.000000e+00 0.000000e+00
6.066670e-01 0.000000e+00 0.000000e+00
6.133330e-01 0.000000e+00 0.000000e+00
6.200000e-01 0.000000e+00 0.000000e+00
6.266670e-01 0.000000e+00 0.000000e+00
6.333330e-01 0.000000e+00 0.000000e+00
6.400000e-01 0.000000e+00 0.000000e+00
6.466670e-01 0.000000e+00 0.000000e+00
6.533330e-01 0.000000e+00 0.000000e+00
6.600000e-01 0.000000e+00 0.000000e+00
6.666670e-01 0.000000e+00 0.000000e+00
6.733330e-01 0.000000e+00 0.000000e+00
6.800000e-01 0.000000e+00 0.000000e+00
6.866670e-01 0.000000e+00 0.000000e+00
6.933330e-01 0.000000e+00 0.000000e+00
7.000000e-01 0.000000e+00 0.000000e+00
7.066670e-01 0.000000e+00 0.000000e+00
7.133330e-01 0.000000e+00 0.000000e+00
7.200000e-01 0.000000e+00 0.000000e+00
7.266670e-01 0.000000e+00 0.000000e+00
7.333330e-01 0.000000e+00 0.000000e+00
7.400000e-01 0.000000e+00 0.000000e+00
7.466670e-01 0.000000e+00 0.000000e+00
7.533330e-01 0.000000e+00 0.000000e+00
7.600000e-01 0.000000e+00 0.000000e+00
7.666670e-01 0.000000e+00 0.000000e+00
7.733330e-01 0.000000e+00 0.000000e+00
7.800000e-01 0.000000e+00 0.000000e+00
7.866670e-01 0.000000e+00 0.000000e+00
7.933330e-01 0.000000e+00 0.000000e+00
8.000000e-01 0.000000e+00 0.000000e+00
8.066670e-01 0.000000e+00 0.000000e+00
8.133330e-01 0.000000e+00 0.000000e+00
8.200000e-01 0.000000e+00 0.000000e+00
8.266670e-01 0.000000e+00 0.000000e+00
8.333330e-01 0.000000e+00 0.000000e+00
8.400000e-01 0.000000e+00 0.000000e+00
8.466670e-01 0.000000e+00 0.000000e+00
8.533330e-01 0.000000e+00 0.000000e+00
8.600000e-01 0.000000e+00 0.000000e+00
8.666670e-01 0.000000e+00 0.000000e+00
8.733330e-01 0.000000e+00 0.000000e+00
8.800000e-01 0.000000e+00 0.000000e+00
8.866670e-01 0.000000e+00 0.000000e+00
8.933330e-01 0.000000e+00 0.000000e+00
9.000000e-01 0.000000e+00 0.000000e+00
9.066670e-01 0.000000e+00 0.000000e+00
9.133330e-01 0.000000e+00 0.000000e+00
9.200000e-01 0.000000e+00 0.000000e+00
9.266670e-01 0.000000e+00 0.000000e+00
9.333330e-01 0.000000e+00 0.000000e+00
9.400000e-01 0.000000e+00 0.000000e+00
9.466670e-01 0.000000e+00 0.000000e+00
9.533330e-01 0.000000e+00 0.000000e+00
9.600000e-01 0.000000e+00 0.000000e+00
9.666670e-01 0.000000e+00 0.000000e+00
9.733330e-01 0.000000e+00 0.000000e+00
9.800000e-01 0.000000e+00 0.000000e+00
9.866670e-01 0.000000e+00 0.000000e+00
9.933330e-01 0.000000e+00 0.000000e+00
1.000000e+00 0.000000e+00 0.000000e+00
1.000000e+00 -6.667000e-03 0.000000e+00
1.000000e+00 -1.333300e-02 0.000000e+00
1.000000e+00 -2.000000e-02 0.000000e+00
1.000000e+00 -2.666700e-02 0.000000e+00
1.000000e+00 -3.333300e-02 0.000000e+00
1.000000e+00 -4.000000e-02 0.000000e+00
1.000000e+00 -4.666700e-02 0.000000e+00
1.000000e+00 -5.333300e-02 0.000000e+00
1.000000e+00 -6.000000e-02 0.000000e+00
1.000000e+00 -6.666700e-02 0.000000e+00
1.000000e+00 -7.333300e-02 0.000000e+00
1.000000e+00 -8.000000e-02 0.000000e+00
1.000000e+00 -8.666700e-02 0.000000e+00
1.000000e+00 -9.333300e-02 0.000000e+00
1.000000e+00 -1.000000e-01 0.000000e+00
1.000000e+00 -1.066670e-01 0.000000e+00
1.000000e+00 -1.133330e-01 0.000000e+00
1.000000e+00 -1.200000e-01 0.000000e+00
1.000000e+00 -1.266670e-01 0.000000e+00
1.000000e+00 -1.333330e-01 0.000000e+00
1.000000e+00 -1.400000e-01 0.000000e+00
1.000000e+00 -1.466670e-01 0.000000e+00
1.000000e+00 -1.533330e-01 0.000000e+00
1.000000e+00 -1.600000e-01 0.000000e+00
1.000000e+00 -1.666670e-01 0.000000e+00
1.000000e+00 -1.733330e-01 0.000000e+00
1.000000e+00 -1.800000e-01 0.000000e+00
1.000000e+00 -1.866670e-01 0.000000e+00
1.000000e+00 -1.933330e-01 0.000000e+00
1.000000e+00 -2.000000e-01 0.000000e+00
1.000000e+00 -2.066670e-01 0.000000e+00
1.000000e+00 -2.133330e-01 0.000000e+00
1.000000e+00 -2.200000e-01 0.000000e+00
1.000000e+00 -2.266670e-01 0.000000e+00
1.000000e+00 -2.333330e-01 0.000000e+00
1.000000e+00 -2.400000e-01 0.000000e+00
1.000000e+00 -2.466670e-01 0.000000e+00
1.000000e+00 -2.533330e-01 0.000000e+00
1.000000e+00 -2.600000e-01 0.000000e+00
1.000000e+00 -2.666670e-01 0.000000e+00
1.000000e+00 -2.733330e-01 0.000000e+00
1.000000e+00 -2.800000e-01 0.000000e+00
1.000000e+00 -2.866670e-01 0.000000e+00
1.000000e+00 -2.933330e-01 0.000000e+00
1.000000e+00 -3.000000e-01 0.000000e+00
1.000000e+00 -3.066670e-01 0.000000e+00
1.000000e+00 -3.133330e-01 0.000000e+00
1.000000e+00 -3.200000e-01 0.000000e+00
1.000000e+00 -3.266670e-01 0.000000e+00
1.000000e+00 -3.333330e-01 0.000000e+00
1.000000e+00 -3.400000e-01 0.000000e+00
1.000000e+00 -3.466670e-01 0.000000e+00
1.000000e+00 -3.533330e-01 0.000000e+00
1.000000e+00 -3.600000e-01 0.000000e+00
1.000000e+00 -3.666670e-01 0.000000e+00
1.000000e+00 -3.733330e-01 0.000000e+00
1.000000e+00 -3.800000e-01 0.000000e+00
1.000000e+00 -3.866670e-01 0.000000e+00
1.000000e+00 -3.933330e-01 0.000000e+00
1.000000e+00 -4.000000e-01 0.000000e+00
1.000000e+00 -4.066670e-01 0.000000e+00
1.000000e+00 -4.133330e-01 0.000000e+00
1.000000e+00 -4.200000e-01 0.000000e+00
1.000000e+00 -4.266670e-01 0.000000e+00
1.000000e+00 -4.333330e-01 0.000000e+00
1.000000e+00 -4.400000e-01 0.000000e+00
1.000000e+00 -4.466670e-01 0.000000e+00
1.000000e+00 -4.533330e-01 0.000000e+00
1.000000e+00 -4.600000e-01 0.000000e+00
1.000000e+00 -4.666670e-01 0.000000e+00
1.000000e+00 -4.733330e-01 0.000000e+00
1.000000e+00 -4.800000e-01 0.000000e+00
1.000000e+00 -4.866670e-01 0.000000e+00
1.000000e+00 -4.933330e-01 0.000000e+00
1.000000e+00 -5.000000e-01 0.000000e+00
1.000000e+00 -5.066670e-01 0.000000e+00
1.000000e+00 -5.133330e-01 0.000000e+00
1.000000e+00 -5.200000e-01 0.000000e+00
1.000000e+00 -5.266670e-01 0.000000e+00
1.000000e+00 -5.333330e-01 0.000000e+00
1.000000e+00 -5.400000e-01 0.000000e+00
1.000000e+00 -5.466670e-01 0.000000e+00
1.000000e+00 -5.533330e-01 0.000000e+00
1.000000e+00 -5.600000e-01 0.000000e+00
1.000000e+00 -5.666670e-01 0.000000e+00
1.000000e+00 -5.733330e-01 0.000000e+00
1.000000e+00 -5.800000e-01 0.000000e+00
1.000000e+00 -5.866670e-01 0.000000e+00
1.000000e+00 -5.933330e-01 0.000000e+00
1.000000e+00 -6.000000e-01 0.000000e+00
1.000000e+00 -6.066670e-01 0.000000e+00
1.000000e+00 -6.133330e-01 0.000000e+00
1.000000e+00 -6.200000e-01 0.000000e+00
1.000000e+00 -6.266670e-01 0.000000e+00
1.000000e+00 -6.333330e-01 0.000000e+00
1.000000e+00 -6.400000e-01 0.000000e+00
1.000000e+00 -6.466670e-01 0.000000e+00
1.000000e+00 -6.533330e-01 0.000000e+00
1.000000e+00 -6.600000e-01 0.000000e+00
1.000000e+00 -6.666670e-01 0.000000e+00
1.000000e+00 -6.733330e-01 0.000000e+00
1.000000e+00 -6.800000e-01 0.000000e+00
1.000000e+00 -6.866670e-01 0.000000e+00
1.000000e+00 -6.933330e-01 0.000000e+00
1.000000e+00 -7.000000e-01 0.000000e+00
1.000000e+00 -7.066670e-01 0.000000e+00
1.000000e+00 -7.133330e-01 0.000000e+00
1.000000e+00 -7.200000e-01 0.000000e+00
1.000000e+00 -7.266670e-01 0.000000e+00
1.000000e+00 -7.333330e-01 0.000000e+00
1.000000e+00 -7.400000e-01 0.000000e+00
1.000000e+00 -7.466670e-01 0.000000e+00
1.000000e+00 -7.533330e-01 0.000000e+00
1.000000e+00 -7.600000e-01 0.000000e+00
1.000000e+00 -7.666670e-01 0.000000e+00
1.000000e+00 -7.733330e-01 0.000000e+00
1.000000e+00 -7.800000e-01 0.000000e+00
1.000000e+00 -7.866670e-01 0.000000e+00
1.000000e+00 -7.933330e-01 0.000000e+00
1.000000e+00 -8.000000e-01 0.000000e+00
1.000000e+00 -8.066670e-01 0.000000e+00
1.000000e+00 -8.133330e-01 0.000000e+00
1.000000e+00 -8.200000e-01 0.000000e+00
1.000000e+00 -8.266670e-01 0.000000e+00
1.000000e+00 -8.333330e-01 0.000000e+00
1.000000e+00 -8.400000e-01 0.000000e+00
1.000000e+00 -8.466670e-01 0.000000e+00
1.000000e+00 -8.533330e-01 0.000000e+00
1.000000e+00 -8.600000e-01 0.000000e+00
1.000000e+00 -8.666670e-01 0.000000e+00
1.000000e+00 -8.733330e-01 0.000000e+00
1.000000e+00 -8.800000e-01 0.000000e+00
1.000000e+00 -8.866670e-01 0.000000e+00
1.000000e+00 -8.933330e-01 0.000000e+00
1.000000e+00 -9.000000e-01 0.000000e+00
1.000000e+00 -9.066670e-01 0.000000e+00
1.000000e+00 -9.133330e-01 0.000000e+00
1.000000e+00 -9.200000e-01 0.000000e+00
1.000000e+00 -9.266670e-01 0.000000e+00
1.000000e+00 -9.333330e-01 0.000000e+00
1.000000e+00 -9.400000e-01 0.000000e+00
1.000000e+00 -9.466670e-01 0.000000e+00
1.000000e+00 -9.533330e-01 0.000000e+00
1.000000e+00 -9.600000e-01 0.000000e+00
1.000000e+00 -9.666670e-01 0.000000e+00
1.000000e+00 -9.733330e-01 0.000000e+00
1.000000e+00 -9.800000e-01 0.000000e+00
1.000000e+00 -9.866670e-01 0.000000e+00
1.000000e+00 -9.933330e-01 0.000000e+00
1.000000e+00 -1.000000e+00 0.000000e+00
1.000000e+00 6.667000e-03 0.000000e+00
1.000000e+00 1.333300e-02 0.000000e+00
1.000000e+00 2.000000e-02 0.000000e+00
1.000000e+00 2.666700e-02 0.000000e+00
1.000000e+00 3.333300e-02 0.000000e+00
1.000000e+00 4.000000e-02 0.000000e+00
1.000000e+00 4.666700e-02 0.000000e+00
1.000000e+00 5.333300e-02 0.000000e+00
1.000000e+00 6.000000e-02 0.000000e+00
1.000000e+00 6.666700e-02 0.000000e+00
1.000000e+00 7.333300e-02 0.000000e+00
1.000000e+00 8.000000e-02 0.000000e+00
1.000000e+00 8.666700e-02 0.000000e+00
1.000000e+00 9.333300e-02 0.000000e+00
1.000000e+00 1.000000e-01 0.000000e+00
1.000000e+00 1.066670e-01 0.000000e+00
1.000000e+00 1.133330e-01 0.000000e+00
1.000000e+00 1.200000e-01 0.000000e+00
1.000000e+00 1.266670e-01 0.000000e+00
1.000000e+00 1.333330e-01 0.000000e+00
1.000000e+00 1.400000e-01 0.000000e+00
1.000000e+00 1.466670e-01 0.000000e+00
1.000000e+00 1.533330e-01 0.000000e+00
1.000000e+00 1.600000e-01 0.000000e+00
1.000000e+00 1.666670e-01 0.000000e+00
1.000000e+00 1.733330e-01 0.000000e+00
1.000000e+00 1.800000e-01 0.000000e+00
1.000000e+00 1.866670e-01 0.000000e+00
1.000000e+00 1.933330e-01 0.000000e+00
1.000000e+00 2.000000e-01 0.000000e+00
1.000000e+00 2.066670e-01 0.000000e+00
1.000000e+00 2.133330e-01 0.000000e+00
1.000000e+00 2.200000e-01 0.000000e+00
1.000000e+00 2.266670e-01 0.000000e+00
1.000000e+00 2.333330e-01 0.000000e+00
1.000000e+00 2.400000e-01 0.000000e+00
1.000000e+00 2.466670e-01 0.000000e+00
1.000000e+00 2.533330e-01 0.000000e+00
1.000000e+00 2.600000e-01 0.000000e+00
1.000000e+00 2.666670e-01 0.000000e+00
1.000000e+00 2.733330e-01 0.000000e+00
1.000000e+00 2.800000e-01 0.000000e+00
1.000000e+00 2.866670e-01 0.000000e+00
1.000000e+00 2.933330e-01 0.000000e+00
1.000000e+00 3.000000e-01 0.000000e+00
1.000000e+00 3.066670e-01 0.000000e+00
1.000000e+00 3.133330e-01 0.000000e+00
1.000000e+00 3.200000e-01 0.000000e+00
1.000000e+00 3.266670e-01 0.000000e+00
1.000000e+00 3.333330e-01 0.000000e+00
1.000000e+00 3.400000e-01 0.000000e+00
1.000000e+00 3.466670e-01 0.000000e+00
1.000000e+00 3.533330e-01 0.000000e+00
1.000000e+00 3.600000e-01 0.000000e+00
1.000000e+00 3.666670e-01 0.000000e+00
1.000000e+00 3.733330e-01 0.000000e+00
1.000000e+00 3.800000e-01 0.000000e+00
1.000000e+00 3.866670e-01 0.000000e+00
1.000000e+00 3.933330e-01 0.000000e+00
1.000000e+00 4.000000e-01 0.000000e+00
1.000000e+00 4.066670e-01 0.000000e+00
1.000000e+00 4.133330e-01 0.000000e+00
1.000000e+00 4.200000e-01 0.000000e+00
1.000000e+00 4.266670e-01 0.000000e+00
1.000000e+00 4.333330e-01 0.000000e+00
1.000000e+00 4.400000e-01 0.000000e+00
1.000000e+00 4.466670e-01 0.000000e+00
1.000000e+00 4.533330e-01 0.000000e+00
1.000000e+00 4.600000e-01 0.000000e+00
1.000000e+00 4.666670e-01 0.000000e+00
1.000000e+00 4.733330e-01 0.000000e+00
1.000000e+00 4.800000e-01 0.000000e+00
1.000000e+00 4.866670e-01 0.000000e+00
1.000000e+00 4.933330e-01 0.000000e+00
1.000000e+00 5.000000e-01 0.000000e+00
1.000000e+00 5.066670e-01 0.000000e+00
1.000000e+00 5.133330e-01 0.000000e+00
1.000000e+00 5.200000e-01 0.000000e+00
1.000000e+00 5.266670e-01 0.000000e+00
1.000000e+00 5.333330e-01 0.000000e+00
1.000000e+00 5.400000e-01 0.000000e+00
1.000000e+00 5.466670e-01 0.000000e+00
1.000000e+00 5.533330e-01 0.000000e+00
1.000000e+00 5.600000e-01 0.000000e+00
1.000000e+00 5.666670e-01 0.000000e+00
1.000000e+00 5.733330e-01 0.000000e+00
1.000000e+00 5.800000e-01 0.000000e+00
1.000000e+00 5.866670e-01 0.000000e+00
1.000000e+00 5.933330e-01 0.000000e+00
1.000000e+00 6.000000e-01 0.000000e+00
1.000000e+00 6.066670e-01 0.000000e+00
1.000000e+00 6.133330e-01 0.000000e+00
1.000000e+00 6.200000e-01 0.000000e+00
1.000000e+00 6.266670e-01 0.000000e+00
1.000000e+00 6.333330e-01 0.000000e+00
1.000000e+00 6.400000e-01 0.000000e+00
1.000000e+00 6.466670e-01 0.000000e+00
1.000000e+00 6.533330e-01 0.000000e+00
1.000000e+00 6.600000e-01 0.000000e+00
1.000000e+00 6.666670e-01 0.000000e+00
1.000000e+00 6.733330e-01 0.000000e+00
1.000000e+00 6.800000e-01 0.000000e+00
1.000000e+00 6.866670e-01 0.000000e+00
1.000000e+00 6.933330e-01 0.000000e+00
1.000000e+00 7.000000e-01 0.000000e+00
1.000000e+00 7.066670e-01 0.000000e+00
1.000000e+00 7.133330e-01 0.000000e+00
1.000000e+00 7.200000e-01 0.000000e+00
1.000000e+00 7.266670e-01 0.000000e+00
1.000000e+00 7.333330e-01 0.000000e+00
1.000000e+00 7.400000e-01 0.000000e+00
1.000000e+00 7.466670e-01 0.000000e+00
1.000000e+00 7.533330e-01 0.000000e+00
1.000000e+00 7.600000e-01 0.000000e+00
1.000000e+00 7.666670e-01 0.000000e+00
1.000000e+00 7.733330e-01 0.000000e+00
1.000000e+00 7.800000e-01 0.000000e+00
1.000000e+00 7.866670e-01 0.000000e+00
1.000000e+00 7.933330e-01 0.000000e+00
1.000000e+00 8.000000e-01 0.000000e+00
1.000000e+00 8.066670e-01 0.000000e+00
1.000000e+00 8.133330e-01 0.000000e+00
1.000000e+00 8.200000e-01 0.000000e+00
1.000000e+00 8.266670e-01 0.000000e+00
1.000000e+00 8.333330e-01 0.000000e+00
1.000000e+00 8.400000e-01 0.000000e+00
1.000000e+00 8.466670e-01 0.000000e+00
1.000000e+00 8.533330e-01 0.000000e+00
1.000000e+00 8.600000e-01 0.000000e+00
1.000000e+00 8.666670e-01 0.000000e+00
1.000000e+00 8.733330e-01 0.000000e+00
1.000000e+00 8.800000e-01 0.000000e+00
1.000000e+00 8.866670e-01 0.000000e+00
1.000000e+00 8.933330e-01 0.000000e+00
1.000000e+00 9.000000e-01 0.000000e+00
1.000000e+00 9.066670e-01 0.000000e+00
1.000000e+00 9.133330e-01 0.000000e+00
1.000000e+00 9.200000e-01 0.000000e+00
1.000000e+00 9.266670e-01 0.000000e+00
1.000000e+00 9.333330e-01 0.000000e+00
1.000000e+00 9.400000e-01 0.000000e+00
1.000000e+00 9.466670e-01 0.000000e+00
1.000000e+00 9.533330e-01 0.000000e+00
1.000000e+00 9.600000e-01 0.000000e+00
1.000000e+00 9.666670e-01 0.000000e+00
1.000000e+00 9.733330e-01 0.000000e+00
1.000000e+00 9.800000e-01 0.000000e+00
1.000000e+00 9.866670e-01 0.000000e+00
1.000000e+00 9.933330e-01 0.000000e+00
1.000000e+00 1.000000e+00 0.000000e+00
LINES 451 1350
2 0 1
2 1 2
2 2 3
2 3 4
2 4 5
2 5 6
2 6 7
2 7 8
2 8 9
2 9 10
2 10 11
2 11 12
2 12 13
2 13 14
2 14 15
2 15 16
2 16 17
2 17 18
2 18 19
2 19 20
2 20 21
2 21 22
2 22 23
2 23 24
2 24 25
2 25 26
2 26 27
2 27 28
2 28 29
2 29 30
2 30 31
2 31 32
2 32 33
2 33 34
2 34 35
2 35 36
2 36 37
2 37 38
2 38 39
2 39 40
2 40 41
2 41 42
2 42 43
2 43 44
2 44 45
2 45 46
2 46 47
2 47 48
2 48 49
2 49 50
2 50 51
2 51 52
2 52 53
2 53 54
2 54 55
2 55 56
2 56 57
2 57 58
2 58 59
2 59 60
2 60 61
2 61 62
2 62 63
2 63 64
2 64 65
2 65 66
2 66 67
2 67 68
2 68 69
2 69 70
2 70 71
2 71 72
2 72 73
2 73 74
2 74 75
2 75 76
2 76 77
2 77 78
2 78 79
2 79 80
2 80 81
2 81 82
2 82 83
2 83 84
2 84 85
2 85 86
2 86 87
2 87 88
2 88 89
2 89 90
2 90 91
2 91 92
2 92 93
2 93 94
2 94 95
2 95 96
2 96 97
2 97 98
2 98 99
2 99 100
2 100 101
2 101 102
2 102 103
2 103 104
2 104 105
2 105 106
2 106 107
2 107 108
2 108 109
2 109 110
2 110 111
2 111 112
2 112 113
2 113 114
2 114 115
2 115 116
2 116 117
2 117 118
2 118 119
2 119 120
2 120 121
2 121 122
2 122 123
2 123 124
2 124 125
2 125 126
2 126 127
2 127 128
2 128 129
2 129 130
2 130 131
2 131 132
2 132 133
2 133 134
2 134 135
2 135 136
2 136 137
2 137 138
2 138 139
2 139 140
2 140 141
2 141 142
2 142 143
2 143 144
2 144 145
2 145 146
2 146 147
2 147 148
2 148 149
2 149 150
2 150 151
2 151 152
2 152 153
2 153 154
2 154 155
2 155 156
2 156 157
2 157 158
2 158 159
2 159 160
2 160 161
2 161 162
2 162 163
2 163 164
2 164 165
2 165 166
2 166 167
2 167 168
2 168 169
2 169 170
2 170 171
2 171 172
2 172 173
2 173 174
2 174 175
2 175 176
2 176 177
2 177 178
2 178 179
2 179 180
2 180 181
2 181 182
2 182 183
2 183 184
2 184 185
2 185 186
2 186 187
2 187 188
2 188 189
2 189 190
2 190 191
2 191 192
2 192 193
2 193 194
2 194 195
2 195 196
2 196 197
2 197 198
2 198 199
2 199 200
2 200 201
2 201 202
2 202 203
2 203 204
2 204 205
2 205 206
2 206 207
2 207 208
2 208 209
2 209 210
2 210 211
2 211 212
2 212 213
2 213 214
2 214 215
2 215 216
2 216 217
2 217 218
2 218 219
2 219 220
2 220 221
2 221 222
2 222 223
2 223 224
2 224 225
2 225 226
2 226 227
2 227 228
2 228 229
2 229 230
2 230 231
2 231 232
2 232 233
2 233 234
2 234 235
2 235 236
2 236 237
2 237 238
2 238 239
2 239 240
2 240 241
2 241 242
2 242 243
2 243 244
2 244 245
2 245 246
2 246 247
2 247 248
2 248 249
2 249 250
2 250 251
2 251 252
2 252 253
2 253 254
2 254 255
2 255 256
2 256 257
2 257 258
2 258 259
2 259 260
2 260 261
2 261 262
2 262 263
2 263 264
2 264 265
2 265 266
2 266 267
2 267 268
2 268 269
2 269 270
2 270 271
2 271 272
2 272 273
2 273 274
2 274 275
2 275 276
2 276 277
2 277 278
2 278 279
2 279 280
2 280 281
2 281 282
2 282 283
2 283 284
2 284 285
2 285 286
2 286 287
2 287 288
2 288 289
2 289 290
2 290 291
2 291 292
2 292 293
2 293 294
2 294 295
2 295 296
2 296 297
2 297 298
2 298 299
2 299 300
2 150 301
2 301 302
2 302 303
2 303 304
2 304 305
2 305 306
2 306 307
2 307 308
2 308 309
2 309 310
2 310 311
2 311 312
2 312 313
2 313 314
2 314 315
2 315 316
2 316 317
2 317 318
2 318 319
2 319 320
2 320 321
2 321 322
2 322 323
2 323 324
2 324 325
2 325 326
2 326 327
2 327 328
2 328 329
2 329 330
2 330 331
2 331 332
2 332 333
2 333 334
2 334 335
2 335 336
2 336 337
2 337 338
2 338 339
2 339 340
2 340 341
2 341 342
2 342 343
2 343 344
2 344 345
2 345 346
2 346 347
2 347 348
2 348 349
2 349 350
2 350 351
2 351 352
2 352 353
2 353 354
2 354 355
2 355 356
2 356 357
2 357 358
2 358 359
2 359 360
2 360 361
2 361 362
2 362 363
2 363 364
2 364 365
2 365 366
2 366 367
2 367 368
2 368 369
2 369 370
2 370 371
2 371 372
2 372 373
2 373 374
2 374 375
2 375 376
2 376 377
2 377 378
2 378 379
2 379 380
2 380 381
2 381 382
2 382 383
2 383 384
2 384 385
2 385 386
2 386 387
2 387 388
2 388 389
2 389 390
2 390 391
2 391 392
2 392 393
2 393 394
2 394 395
2 395 396
2 396 397
2 397 398
2 398 399
2 399 400
2 400 401
2 401 402
2 402 403
2 403 404
2 404 405
2 405 406
2 406 407
2 407 408
2 408 409
2 409 410
2 410 411
2 411 412
2 412 413
2 413 414
2 414 415
2 415 416
2 416 417
2 417 418
2 418 419
2 419 420
2 420 421
2 421 422
2 422 423
2 423 424
2 424 425
2 425 426
2 426 427
2 427 428
2 428 429
2 429 430
2 430 431
2 431 432
2 432 433
2 433 434
2 434 435
2 435 436
2 436 437
2 437 438
2 438 439
2 439 440
2 440 441
2 441 442
2 442 443
2 443 444
2 444 445
2 445 446
2 446 447
2 447 448
2 448 449
2 449 450
POINT_DATA 451
SCALARS vm float 1
LOOKUP_TABLE default
6.711300e-10
2.492854e-05
4.978433e-05
7.449524e-05
9.898931e-05
1.231955e-04
1.463434e-04
1.684661e-04
1.903349e-04
2.119540e-04
2.333260e-04
2.544535e-04
2.753390e-04
2.959856e-04
3.163960e-04
3.365736e-04
3.565213e-04
3.762424e-04
3.957401e-04
4.150176e-04
4.340781e-04
4.529249e-04
4.715609e-04
4.899895e-04
5.082135e-04
5.262360e-04
5.440601e-04
5.616885e-04
5.791241e-04
5.963699e-04
6.134284e-04
6.303025e-04
6.469948e-04
6.635079e-04
6.798444e-04
6.960068e-04
7.119977e-04
7.278196e-04
7.434748e-04
7.589658e-04
7.742950e-04
7.894647e-04
8.044773e-04
8.193349e-04
8.340400e-04
8.485947e-04
8.630013e-04
8.772619e-04
8.913788e-04
9.053540e-04
9.191897e-04
9.328881e-04
9.464511e-04
9.598808e-04
9.731793e-04
9.863485e-04
9.993906e-04
1.012307e-03
1.025101e-03
1.037773e-03
1.050326e-03
1.062761e-03
1.075080e-03
1.087285e-03
1.099379e-03
1.111362e-03
1.123237e-03
1.135005e-03
1.146668e-03
1.158228e-03
1.169687e-03
1.181046e-03
1.192307e-03
1.203471e-03
1.214541e-03
1.225518e-03
1.236403e-03
1.247199e-03
1.257906e-03
1.268526e-03
1.279062e-03
1.289514e-03
1.299883e-03
1.310173e-03
1.320383e-03
1.330515e-03
1.340572e-03
1.350554e-03
1.360462e-03
1.370299e-03
1.380065e-03
1.389763e-03
1.399392e-03
1.408955e-03
1.418453e-03
1.427887e-03
1.437259e-03
1.446569e-03
1.455820e-03
1.465011e-03
1.474145e-03
1.483222e-03
1.492244e-03
1.501212e-03
1.510126e-03
1.518988e-03
1.527799e-03
1.536560e-03
1.545271e-03
1.553933e-03
1.562548e-03
1.571116e-03
1.579638e-03
1.588113e-03
1.596544e-03
1.604930e-03
1.613271e-03
1.621569e-03
1.629823e-03
1.638033e-03
1.646199e-03
1.654321e-03
1.662399e-03
1.670432e-03
1.678420e-03
1.686361e-03
1.694255e-03
1.702101e-03
1.709895e-03
1.717638e-03
1.725326e-03
1.732956e-03
1.740527e-03
1.748033e-03
1.755471e-03
1.762836e-03
1.770123e-03
1.777325e-03
1.784435e-03
1.791445e-03
1.798345e-03
1.805124e-03
1.811770e-03
1.818269e-03
1.824613e-03
1.830825e-03
1.837131e-03
1.844948e-03
1.862638e-03
1.939052e-03
2.359017e-03
1.179509e-03
9.807959e-04
9.502447e-04
9.484187e-04
9.513940e-04
9.550670e-04
9.587350e-04
9.622789e-04
9.656798e-04
9.689357e-04
9.720478e-04
9.750174e-04
9.778458e-04
9.805344e-04
9.830843e-04
9.854967e-04
9.877724e-04
9.899123e-04
9.919172e-04
9.937876e-04
9.955243e-04
9.971276e-04
9.985981e-04
9.999360e-04
1.001142e-03
1.002216e-03
1.003158e-03
1.003968e-03
1.004648e-03
1.005196e-03
1.005613e-03
1.005899e-03
1.006053e-03
1.006077e-03
1.005970e-03
1.005733e-03
1.005364e-03
1.004863e-03
1.004232e-03
1.003470e-03
1.002576e-03
1.001550e-03
1.000393e-03
9.991038e-04
9.976824e-04
9.961286e-04
9.944422e-04
9.926229e-04
9.906703e-04
9.885841e-04
9.863640e-04
9.840095e-04
9.815204e-04
9.788962e-04
9.761364e-04
9.732406e-04
9.702083e-04
9.670389e-04
9.637321e-04
9.602871e-04
9.567034e-04
9.529805e-04
9.491177e-04
9.451143e-04
9.409698e-04
9.366833e-04
9.322543e-04
9.276819e-04
9.229654e-04
9.181040e-04
9.130969e-04
9.079434e-04
9.026425e-04
8.971933e-04
8.915951e-04
8.858469e-04
8.799477e-04
8.738966e-04
8.676926e-04
8.613348e-04
8.548222e-04
8.481536e-04
8.413281e-04
8.343446e-04
8.272020e-04
8.198992e-04
8.124351e-04
8.048086e-04
7.970186e-04
7.890638e-04
7.809432e-04
7.726555e-04
7.641997e-04
7.555745e-04
7.467788e-04
7.378113e-04
7.286710e-04
7.193566e-04
7.098670e-04
7.002011e-04
6.903577e-04
6.803358e-04
6.701343e-04
6.597521e-04
6.491883e-04
6.384419e-04
6.275120e-04
6.163979e-04
6.050987e-04
5.936137e-04
5.819425e-04
5.700845e-04
5.580393e-04
5.458068e-04
5.333868e-04
5.207795e-04
5.079851e-04
4.950040e-04
4.818370e-04
4.684849e-04
4.549489e-04
4.412304e-04
4.273312e-04
4.132534e-04
3.989993e-04
3.845717e-04
3.699737e-04
3.552088e-04
3.402810e-04
3.251947e-04
3.099544e-04
2.945655e-04
2.790334e-04
2.633642e-04
2.475640e-04
2.316397e-04
2.155981e-04
1.994467e-04
1.831929e-04
1.668445e-04
1.504097e-04
1.338967e-04
1.173137e-04
1.006693e-04
8.397215e-05
6.723084e-05
5.045415e-05
3.365090e-05
1.682999e-05
6.570875e-10
1.179509e-03
9.807959e-04
9.502447e-04
9.484187e-04
9.513940e-04
9.550670e-04
9.587350e-04
9.622789e-04
9.656798e-04
9.689357e-04
9.720478e-04
9.750174e-04
9.778458e-04
9.805344e-04
9.830843e-04
9.854967e-04
9.877724e-04
9.899123e-04
9.919172e-04
9.937876e-04
9.955243e-04
9.971276e-04
9.985981e-04
9.999360e-04
1.001142e-03
1.002216e-03
1.003158e-03
1.003968e-03
1.004648e-03
1.005196e-03
1.005613e-03
1.005899e-03
1.006053e-03
1.006077e-03
1.005970e-03
1.005733e-03
1.005364e-03
1.004863e-03
1.004232e-03
1.003470e-03
1.002576e-03
1.001550e-03
1.000393e-03
9.991038e-04
9.976824e-04
9.961286e-04
9.944422e-04
9.926229e-04
9.906703e-04
9.885841e-04
9.863640e-04
9.840095e-04
9.815204e-04
9.788962e-04
9.761364e-04
9.732406e-04
9.702083e-04
9.670389e-04
9.637321e-04
9.602871e-04
9.567034e-04
9.529805e-04
9.491177e-04
9.451143e-04
9.409698e-04
9.366833e-04
9.322543e-04
9.276819e-04
9.229654e-04
9.181040e-04
9.130969e-04
9.079434e-04
9.026425e-04
8.971933e-04
8.915951e-04
8.858469e-04
8.799477e-04
8.738966e-04
8.676926e-04
8.613348e-04
8.548222e-04
8.481536e-04
8.413281e-04
8.343446e-04
8.272020e-04
8.198992e-04
8.124351e-04
8.048086e-04
7.970186e-04
7.890638e-04
7.809432e-04
7.726555e-04
7.641997e-04
7.555745e-04
7.467788e-04
7.378113e-04
7.286710e-04
7.193566e-04
7.098670e-04
7.002011e-04
6.903577e-04
6.803358e-04
6.701343e-04
6.597521e-04
6.491883e-04
6.384419e-04
6.275120e-04
6.163979e-04
6.050987e-04
5.936137e-04
5.819425e-04
5.700845e-04
5.580393e-04
5.458068e-04
5.333868e-04
5.207795e-04
5.079851e-04
4.950040e-04
4.818370e-04
4.684849e-04
4.549489e-04
4.412304e-04
4.273312e-04
4.132534e-04
3.989993e-04
3.845717e-04
3.699737e-04
3.552088e-04
3.402810e-04
3.251947e-04
3.099544e-04
2.945655e-04
2.790334e-04
2.633642e-04
2.475640e-04
2.316397e-04
2.155981e-04
1.994467e-04
1.831929e-04
1.668445e-04
1.504097e-04
1.338967e-04
1.173137e-04
1.006693e-04
8.397215e-05
6.723084e-05
5.045415e-05
3.365090e-05
1.682999e-05
6.570879e-10
