# vtk DataFile Version 3.0
Monodomain FEM
ASCII
DATASET POLYDATA
POINTS 601 float
0.000000e+00 0.000000e+00 0.000000e+00
6.667000e-03 0.000000e+00 0.000000e+00
1.333300e-02 0.000000e+00 0.000000e+00
2.000000e-02 0.000000e+00 0.000000e+00
2.666700e-02 0.000000e+00 0.000000e+00
3.333300e-02 0.000000e+00 0.000000e+00
4.000000e-02 0.000000e+00 0.000000e+00
4.666700e-02 0.000000e+00 0.000000e+00
5.333300e-02 0.000000e+00 0.000000e+00
6.000000e-02 0.000000e+00 0.000000e+00
6.666700e-02 0.000000e+00 0.000000e+00
7.333300e-02 0.000000e+00 0.000000e+00
8.000000e-02 0.000000e+00 0.000000e+00
8.666700e-02 0.000000e+00 0.000000e+00
9.333300e-02 0.000000e+00 0.000000e+00
1.000000e-01 0.000000e+00 0.000000e+00
1.066670e-01 0.000000e+00 0.000000e+00
1.133330e-01 0.000000e+00 0.000000e+00
1.200000e-01 0.000000e+00 0.000000e+00
1.266670e-01 0.000000e+00 0.000000e+00
1.333330e-01 0.000000e+00 0.000000e+00
1.400000e-01 0.000000e+00 0.000000e+00
1.466670e-01 0.000000e+00 0.000000e+00
1.533330e-01 0.000000e+00 0.000000e+00
1.600000e-01 0.000000e+00 0.000000e+00
1.666670e-01 0.000000e+00 0.000000e+00
1.733330e-01 0.000000e+00 0.000000e+00
1.800000e-01 0.000000e+00 0.000000e+00
1.866670e-01 0.000000e+00 0.000000e+00
1.933330e-01 0.000000e+00 0.000000e+00
2.000000e-01 0.000000e+00 0.000000e+00
2.066670e-01 0.000000e+00 0.000000e+00
2.133330e-01 0.000000e+00 0.000000e+00
2.200000e-01 0.000000e+00 0.000000e+00
2.266670e-01 0.000000e+00 0.000000e+00
2.333330e-01 0.000000e+00 0.000000e+00
2.400000e-01 0.000000e+00 0.000000e+00
2.466670e-01 0.000000e+00 0.000000e+00
2.533330e-01 0.000000e+00 0.000000e+00
2.600000e-01 0.000000e+00 0.000000e+00
2.666670e-01 0.000000e+00 0.000000e+00
2.733330e-01 0.000000e+00 0.000000e+00
2.800000e-01 0.000000e+00 0.000000e+00
2.866670e-01 0.000000e+00 0.000000e+00
2.933330e-01 0.000000e+00 0.000000e+00
3.000000e-01 0.000000e+00 0.000000e+00
3.066670e-01 0.000000e+00 0.000000e+00
3.133330e-01 0.000000e+00 0.000000e+00
3.200000e-01 0.000000e+00 0.000000e+00
3.266670e-01 0.000000e+00 0.000000e+00
3.333330e-01 0.000000e+00 0.000000e+00
3.400000e-01 0.000000e+00 0.000000e+00
3.466670e-01 0.000000e+00 0.000000e+00
3.533330e-01 0.000000e+00 0.000000e+00
3.600000e-01 0.000000e+00 0.000000e+00
3.666670e-01 0.000000e+00 0.000000e+00
3.733330e-01 0.000000e+00 0.000000e+00
3.800000e-01 0.000000e+00 0.000000e+00
3.866670e-01 0.000000e+00 0.000000e+00
3.933330e-01 0.000000e+00 0.000000e+00
4.000000e-01 0.000000e+00 0.000000e+00
4.066670e-01 0.000000e+00 0.000000e+00
4.133330e-01 0.000000e+00 0.000000e+00
4.200000e-01 0.000000e+00 0.000000e+00
4.266670e-01 0.000000e+00 0.000000e+00
4.333330e-01 0.000000e+00 0.000000e+00
4.400000e-01 0.000000e+00 0.000000e+00
4.466670e-01 0.000000e+00 0.000000e+00
4.533330e-01 0.000000e+00 0.000000e+00
4.600000e-01 0.000000e+00 0.000000e+00
4.666670e-01 0.000000e+00 0.000000e+00
4.733330e-01 0.000000e+00 0.000000e+00
4.800000e-01 0.000000e+00 0.000000e+00
4.866670e-01 0.000000e+00 0.000000e+00
4.933330e-01 0.000000e+00 0.000000e+00
5.000000e-01 0.000000e+00 0.000000e+00
5.066670e-01 0.000000e+00 0.000000e+00
5.133330e-01 0.000000e+00 0.000000e+00
5.200000e-01 0.000000e+00 0.000000e+00
5.266670e-01 0.000000e+00 0.000000e+00
5.333330e-01 0.000000e+00 0.000000e+00
5.400000e-01 0.000000e+00 0.000000e+00
5.466670e-01 0.000000e+00 0.000000e+00
5.533330e-01 0.000000e+00 0.000000e+00
5.600000e-01 0.000000e+00 0.000000e+00
5.666670e-01 0.000000e+00 0.000000e+00
5.733330e-01 0.000000e+00 0.000000e+00
5.800000e-01 0.000000e+00 0.000000e+00
5.866670e-01 0.000000e+00 0.000000e+00
5.933330e-01 0.000000e+00 0.000000e+00
6.000000e-01 0.000000e+00 0.000000e+00
6.066670e-01 0.000000e+00 0.000000e+00
6.133330e-01 0.000000e+00 0.000000e+00
6.200000e-01 0.000000e+00 0.000000e+00
6.266670e-01 0.000000e+00 0.000000e+00
6.333330e-01 0.000000e+00 0.000000e+00
6.400000e-01 0.000000e+00 0.000000e+00
6.466670e-01 0.000000e+00 0.000000e+00
6.533330e-01 0.000000e+00 0.000000e+00
6.600000e-01 0.000000e+00 0.000000e+00
6.666670e-01 0.000000e+00 0.000000e+00
6.733330e-01 0.000000e+00 0.000000e+00
6.800000e-01 0.000000e+00 0.000000e+00
6.866670e-01 0.000000e+00 0.000000e+00
6.933330e-01 0.000000e+00 0.000000e+00
7.000000e-01 0.000000e+00 0.000000e+00
7.066670e-01 0.000000e+00 0.000000e+00
7.133330e-01 0.000000e+00 0.000000e+00
7.200000e-01 0.000000e+00 0.000000e+00
7.266670e-01 0.000000e+00 0.000000e+00
7.333330e-01 0.000000e+00 0.000000e+00
7.400000e-01 0.000000e+00 0.000000e+00
7.466670e-01 0.000000e+00 0.000000e+00
7.533330e-01 0.000000e+00 0.000000e+00
7.600000e-01 0.000000e+00 0.000000e+00
7.666670e-01 0.000000e+00 0.000000e+00
7.733330e-01 0.000000e+00 0.000000e+00
7.800000e-01 0.000000e+00 0.000000e+00
7.866670e-01 0.000000e+00 0.000000e+00
7.933330e-01 0.000000e+00 0.000000e+00
8.000000e-01 0.000000e+00 0.000000e+00
8.066670e-01 0.000000e+00 0.000000e+00
8.133330e-01 0.000000e+00 0.000000e+00
8.200000e-01 0.000000e+00 0.000000e+00
8.266670e-01 0.000000e+00 0.000000e+00
8.333330e-01 0.000000e+00 0.000000e+00
8.400000e-01 0.000000e+00 0.000000e+00
8.466670e-01 0.000000e+00 0.000000e+00
8.533330e-01 0.000000e+00 0.000000e+00
8.600000e-01 0.000000e+00 0.000000e+00
8.666670e-01 0.000000e+00 0.000000e+00
8.733330e-01 0.000000e+00 0.000000e+00
8.800000e-01 0.000000e+00 0.000000e+00
8.866670e-01 0.000000e+00 0.000000e+00
8.933330e-01 0.000000e+00 0.000000e+00
9.000000e-01 0.000000e+00 0.000000e+00
9.066670e-01 0.000000e+00 0.000000e+00
9.133330e-01 0.000000e+00 0.000000e+00
9.200000e-01 0.000000e+00 0.000000e+00
9.266670e-01 0.000000e+00 0.000000e+00
9.333330e-01 0.000000e+00 0.000000e+00
9.400000e-01 0.000000e+00 0.000000e+00
9.466670e-01 0.000000e+00 0.000000e+00
9.533330e-01 0.000000e+00 0.000000e+00
9.600000e-01 0.000000e+00 0.000000e+00
9.666670e-01 0.000000e+00 0.000000e+00
9.733330e-01 0.000000e+00 0.000000e+00
9.800000e-01 0.000000e+00 0.000000e+00
9.866670e-01 0.000000e+00 0.000000e+00
9.933330e-01 0.000000e+00 0.000000e+00
1.000000e+00 0.000000e+00 0.000000e+00
1.006667e+00 0.000000e+00 0.000000e+00
1.013333e+00 0.000000e+00 0.000000e+00
1.020000e+00 0.000000e+00 0.000000e+00
1.026667e+00 0.000000e+00 0.000000e+00
1.033333e+00 0.000000e+00 0.000000e+00
1.040000e+00 0.000000e+00 0.000000e+00
1.046667e+00 0.000000e+00 0.000000e+00
1.053333e+00 0.000000e+00 0.000000e+00
1.060000e+00 0.000000e+00 0.000000e+00
1.066667e+00 0.000000e+00 0.000000e+00
1.073333e+00 0.000000e+00 0.000000e+00
1.080000e+00 0.000000e+00 0.000000e+00
1.086667e+00 0.000000e+00 0.000000e+00
1.093333e+00 0.000000e+00 0.000000e+00
1.100000e+00 0.000000e+00 0.000000e+00
1.106667e+00 0.000000e+00 0.000000e+00
1.113333e+00 0.000000e+00 0.000000e+00
1.120000e+00 0.000000e+00 0.000000e+00
1.126667e+00 0.000000e+00 0.000000e+00
1.133333e+00 0.000000e+00 0.000000e+00
1.140000e+00 0.000000e+00 0.000000e+00
1.146667e+00 0.000000e+00 0.000000e+00
1.153333e+00 0.000000e+00 0.000000e+00
1.160000e+00 0.000000e+00 0.000000e+00
1.166667e+00 0.000000e+00 0.000000e+00
1.173333e+00 0.000000e+00 0.000000e+00
1.180000e+00 0.000000e+00 0.000000e+00
1.186667e+00 0.000000e+00 0.000000e+00
1.193333e+00 0.000000e+00 0.000000e+00
1.200000e+00 0.000000e+00 0.000000e+00
1.206667e+00 0.000000e+00 0.000000e+00
1.213333e+00 0.000000e+00 0.000000e+00
1.220000e+00 0.000000e+00 0.000000e+00
1.226667e+00 0.000000e+00 0.000000e+00
1.233333e+00 0.000000e+00 0.000000e+00
1.240000e+00 0.000000e+00 0.000000e+00
1.246667e+00 0.000000e+00 0.000000e+00
1.253333e+00 0.000000e+00 0.000000e+00
1.260000e+00 0.000000e+00 0.000000e+00
1.266667e+00 0.000000e+00 0.000000e+00
1.273333e+00 0.000000e+00 0.000000e+00
1.280000e+00 0.000000e+00 0.000000e+00
1.286667e+00 0.000000e+00 0.000000e+00
1.293333e+00 0.000000e+00 0.000000e+00
1.300000e+00 0.000000e+00 0.000000e+00
1.306667e+00 0.000000e+00 0.000000e+00
1.313333e+00 0.000000e+00 0.000000e+00
1.320000e+00 0.000000e+00 0.000000e+00
1.326667e+00 0.000000e+00 0.000000e+00
1.333333e+00 0.000000e+00 0.000000e+00
1.340000e+00 0.000000e+00 0.000000e+00
1.346667e+00 0.000000e+00 0.000000e+00
1.353333e+00 0.000000e+00 0.000000e+00
1.360000e+00 0.000000e+00 0.000000e+00
1.366667e+00 0.000000e+00 0.000000e+00
1.373333e+00 0.000000e+00 0.000000e+00
1.380000e+00 0.000000e+00 0.000000e+00
1.386667e+00 0.000000e+00 0.000000e+00
1.393333e+00 0.000000e+00 0.000000e+00
1.400000e+00 0.000000e+00 0.000000e+00
1.406667e+00 0.000000e+00 0.000000e+00
1.413333e+00 0.000000e+00 0.000000e+00
1.420000e+00 0.000000e+00 0.000000e+00
1.426667e+00 0.000000e+00 0.000000e+00
1.433333e+00 0.000000e+00 0.000000e+00
1.440000e+00 0.000000e+00 0.000000e+00
1.446667e+00 0.000000e+00 0.000000e+00
1.453333e+00 0.000000e+00 0.000000e+00
1.460000e+00 0.000000e+00 0.000000e+00
1.466667e+00 0.000000e+00 0.000000e+00
1.473333e+00 0.000000e+00 0.000000e+00
1.480000e+00 0.000000e+00 0.000000e+00
1.486667e+00 0.000000e+00 0.000000e+00
1.493333e+00 0.000000e+00 0.000000e+00
1.500000e+00 0.000000e+00 0.000000e+00
1.506667e+00 0.000000e+00 0.000000e+00
1.513333e+00 0.000000e+00 0.000000e+00
1.520000e+00 0.000000e+00 0.000000e+00
1.526667e+00 0.000000e+00 0.000000e+00
1.533333e+00 0.000000e+00 0.000000e+00
1.540000e+00 0.000000e+00 0.000000e+00
1.546667e+00 0.000000e+00 0.000000e+00
1.553333e+00 0.000000e+00 0.000000e+00
1.560000e+00 0.000000e+00 0.000000e+00
1.566667e+00 0.000000e+00 0.000000e+00
1.573333e+00 0.000000e+00 0.000000e+00
1.580000e+00 0.000000e+00 0.000000e+00
1.586667e+00 0.000000e+00 0.000000e+00
1.593333e+00 0.000000e+00 0.000000e+00
1.600000e+00 0.000000e+00 0.000000e+00
1.606667e+00 0.000000e+00 0.000000e+00
1.613333e+00 0.000000e+00 0.000000e+00
1.620000e+00 0.000000e+00 0.000000e+00
1.626667e+00 0.000000e+00 0.000000e+00
1.633333e+00 0.000000e+00 0.000000e+00
1.640000e+00 0.000000e+00 0.000000e+00
1.646667e+00 0.000000e+00 0.000000e+00
1.653333e+00 0.000000e+00 0.000000e+00
1.660000e+00 0.000000e+00 0.000000e+00
1.666667e+00 0.000000e+00 0.000000e+00
1.673333e+00 0.000000e+00 0.000000e+00
1.680000e+00 0.000000e+00 0.000000e+00
1.686667e+00 0.000000e+00 0.000000e+00
[...]
POINT_DATA 601
SCALARS vm float 1
LOOKUP_TABLE default
4.371118e-11
2.463737e-06
4.915744e-06
7.344347e-06
9.737952e-06
1.208514e-05
1.426041e-05
1.626957e-05
1.823886e-05
2.016924e-05
2.206139e-05
2.391597e-05
2.573365e-05
2.751515e-05
2.926120e-05
3.097254e-05
3.264993e-05
3.429413e-05
3.590588e-05
3.748596e-05
3.903511e-05
4.055407e-05
4.204359e-05
4.350440e-05
4.493722e-05
4.634276e-05
4.772172e-05
4.907480e-05
5.040267e-05
5.170600e-05
5.298546e-05
5.424171e-05
5.547538e-05
5.668710e-05
5.787752e-05
5.904724e-05
6.019688e-05
6.132704e-05
6.243832e-05
6.353132e-05
6.460662e-05
6.566479e-05
6.670642e-05
6.773207e-05
6.874231e-05
6.973769e-05
7.071877e-05
7.168609e-05
7.264021e-05
7.358165e-05
7.451095e-05
7.542865e-05
7.633526e-05
7.723131e-05
7.811732e-05
7.899379e-05
7.986124e-05
8.072017e-05
8.157108e-05
8.241447e-05
8.325082e-05
8.408064e-05
8.490439e-05
8.572258e-05
8.653567e-05
8.734413e-05
8.814845e-05
8.894909e-05
8.974651e-05
9.054117e-05
9.133354e-05
9.212407e-05
9.291321e-05
9.370141e-05
9.448912e-05
9.527679e-05
9.606484e-05
9.685372e-05
9.764387e-05
9.843572e-05
9.922969e-05
1.000262e-04
1.008257e-04
1.016286e-04
1.024353e-04
1.032463e-04
1.040619e-04
1.048825e-04
1.057086e-04
1.065406e-04
1.073788e-04
1.082237e-04
1.090756e-04
1.099350e-04
1.108022e-04
1.116776e-04
1.125616e-04
1.134545e-04
1.143568e-04
1.152687e-04
1.161907e-04
1.171230e-04
1.180661e-04
1.190203e-04
1.199859e-04
1.209632e-04
1.219526e-04
1.229542e-04
1.239686e-04
1.249958e-04
1.260363e-04
1.270901e-04
1.281577e-04
1.292392e-04
1.303348e-04
1.314448e-04
1.325692e-04
1.337082e-04
1.348621e-04
1.360307e-04
1.372143e-04
1.384127e-04
1.396262e-04
1.408545e-04
1.420975e-04
1.433552e-04
1.446273e-04
1.459136e-04
1.472136e-04
1.485271e-04
1.498534e-04
1.511919e-04
1.525419e-04
1.539026e-04
1.552730e-04
1.566517e-04
1.580374e-04
1.594285e-04
1.608229e-04
1.622186e-04
1.636126e-04
1.650020e-04
1.663829e-04
1.677513e-04
1.691038e-04
1.704451e-04
1.718326e-04
1.736354e-04
1.780461e-04
1.978880e-04
3.079445e-04
1.026482e-04
6.823218e-05
6.311709e-05
6.301008e-05
6.374319e-05
6.460166e-05
6.546325e-05
6.630739e-05
6.713093e-05
6.793372e-05
6.871608e-05
6.947840e-05
7.022106e-05
7.094443e-05
7.164883e-05
7.233458e-05
7.300195e-05
7.365120e-05
7.428258e-05
7.489629e-05
7.549254e-05
7.607150e-05
7.663335e-05
7.717822e-05
7.770627e-05
7.821761e-05
7.871237e-05
7.919065e-05
7.965256e-05
8.009818e-05
8.052761e-05
8.094091e-05
8.133817e-05
8.171944e-05
8.208480e-05
8.243429e-05
8.276796e-05
8.308586e-05
8.338803e-05
8.367450e-05
8.394529e-05
8.420044e-05
8.443995e-05
8.466384e-05
8.487212e-05
8.506478e-05
8.524182e-05
8.540323e-05
8.554900e-05
8.567910e-05
8.579351e-05
8.589220e-05
8.597513e-05
8.604226e-05
8.609354e-05
8.612892e-05
8.614833e-05
8.615172e-05
8.613901e-05
8.611013e-05
8.606500e-05
8.600353e-05
8.592563e-05
8.583121e-05
8.572015e-05
8.559236e-05
8.544772e-05
8.528610e-05
8.510739e-05
8.491146e-05
8.469817e-05
8.446738e-05
8.421894e-05
8.395271e-05
8.366852e-05
8.336621e-05
8.304563e-05
8.270658e-05
8.234891e-05
8.197241e-05
8.157692e-05
8.116223e-05
8.072815e-05
8.027447e-05
7.980100e-05
7.930752e-05
7.879381e-05
7.825965e-05
7.770483e-05
7.712912e-05
7.653228e-05
7.591409e-05
7.527431e-05
7.461269e-05
7.392901e-05
7.322301e-05
7.249446e-05
7.174310e-05
7.096871e-05
7.017102e-05
6.934980e-05
6.850481e-05
6.763581e-05
6.674256e-05
6.582483e-05
6.488240e-05
6.391505e-05
6.292258e-05
6.190477e-05
6.086145e-05
5.979243e-05
5.869756e-05
5.757670e-05
5.642971e-05
5.525650e-05
5.405699e-05
5.283112e-05
5.157888e-05
5.030027e-05
4.899535e-05
4.766421e-05
4.630697e-05
4.492381e-05
4.351497e-05
4.208071e-05
4.062139e-05
3.913740e-05
3.762919e-05
3.609729e-05
3.454229e-05
3.296484e-05
3.136566e-05
2.974553e-05
2.810530e-05
2.644587e-05
2.476820e-05
2.307330e-05
2.136223e-05
1.963611e-05
1.789606e-05
1.614327e-05
1.437895e-05
1.260432e-05
1.082063e-05
9.029145e-06
7.231154e-06
5.427943e-06
3.620812e-06
1.811072e-06
6.922573e-11
1.026482e-04
6.823218e-05
6.311709e-05
6.301008e-05
6.374319e-05
6.460166e-05
6.546325e-05
6.630739e-05
6.713093e-05
6.793372e-05
6.871608e-05
6.947840e-05
7.022106e-05
7.094443e-05
7.164883e-05
7.233458e-05
7.300195e-05
7.365120e-05
7.428258e-05
7.489629e-05
7.549254e-05
7.607150e-05
7.663335e-05
7.717822e-05
7.770627e-05
7.821761e-05
7.871237e-05
7.919065e-05
7.965256e-05
8.009818e-05
8.052761e-05
8.094091e-05
8.133817e-05
8.171944e-05
8.208480e-05
8.243429e-05
8.276796e-05
8.308586e-05
8.338803e-05
8.367450e-05
8.394529e-05
8.420044e-05
8.443995e-05
8.466384e-05
8.487212e-05
8.506478e-05
8.524182e-05
8.540323e-05
8.554900e-05
8.567910e-05
8.579351e-05
8.589220e-05
8.597513e-05
8.604226e-05
8.609354e-05
8.612892e-05
8.614833e-05
8.615172e-05
8.613901e-05
8.611013e-05
8.606500e-05
8.600353e-05
8.592563e-05
8.583121e-05
8.572015e-05
8.559236e-05
8.544772e-05
8.528610e-05
8.510739e-05
8.491146e-05
8.469817e-05
8.446738e-05
8.421894e-05
8.395271e-05
8.366852e-05
8.336621e-05
8.304563e-05
8.270658e-05
8.234891e-05
8.197241e-05
8.157692e-05
8.116223e-05
8.072815e-05
8.027447e-05
7.980100e-05
7.930752e-05
7.879381e-05
7.825965e-05
7.770483e-05
7.712912e-05
7.653228e-05
7.591409e-05
7.527431e-05
7.461269e-05
7.392901e-05
7.322301e-05
7.249446e-05
7.174310e-05
7.096871e-05
7.017102e-05
6.934980e-05
6.850481e-05
6.763581e-05
6.674256e-05
6.582483e-05
6.488240e-05
6.391505e-05
6.292258e-05
6.190477e-05
6.086145e-05
5.979243e-05
5.869756e-05
5.757670e-05
5.642971e-05
5.525650e-05
5.405699e-05
5.283112e-05
5.157888e-05
5.030027e-05
4.899535e-05
4.766421e-05
4.630697e-05
4.492381e-05
4.351497e-05
4.208071e-05
4.062139e-05
3.913740e-05
3.762919e-05
3.609729e-05
3.454229e-05
3.296484e-05
3.136566e-05
2.974553e-05
2.810530e-05
2.644587e-05
2.476820e-05
2.307330e-05
2.136223e-05
1.963611e-05
1.789606e-05
1.614327e-05
1.437895e-05
1.260432e-05
1.082063e-05
9.029145e-06
7.231154e-06
5.427943e-06
3.620812e-06
1.811072e-06
6.922588e-11
1.026482e-04
6.823218e-05
6.311709e-05
6.301008e-05
6.374319e-05
6.460166e-05
6.546325e-05
6.630739e-05
6.713093e-05
6.793372e-05
6.871608e-05
6.947840e-05
7.022106e-05
7.094443e-05
7.164883e-05
7.233458e-05
7.300195e-05
7.365120e-05
7.428258e-05
7.489629e-05
7.549254e-05
7.607150e-05
7.663335e-05
7.717822e-05
7.770627e-05
7.821761e-05
7.871237e-05
7.919065e-05
7.965256e-05
8.009818e-05
8.052761e-05
8.094091e-05
8.133817e-05
8.171944e-05
8.208480e-05
8.243429e-05
8.276796e-05
8.308586e-05
8.338803e-05
8.367450e-05
8.394529e-05
8.420044e-05
8.443995e-05
8.466384e-05
8.487212e-05
8.506478e-05
8.524182e-05
8.540323e-05
8.554900e-05
8.567910e-05
8.579351e-05
8.589220e-05
8.597513e-05
8.604226e-05
8.609354e-05
8.612892e-05
8.614833e-05
8.615172e-05
8.613901e-05
8.611013e-05
8.606500e-05
8.600353e-05
8.592563e-05
8.583121e-05
8.572015e-05
8.559236e-05
8.544772e-05
8.528610e-05
8.510740e-05
8.491146e-05
8.469817e-05
8.446738e-05
8.421894e-05
8.395271e-05
8.366852e-05
8.336621e-05
8.304563e-05
8.270658e-05
8.234891e-05
8.197241e-05
8.157692e-05
8.116223e-05
8.072815e-05
8.027447e-05
7.980100e-05
7.930752e-05
7.879381e-05
7.825965e-05
7.770483e-05
7.712912e-05
7.653228e-05
7.591409e-05
7.527431e-05
7.461269e-05
7.392901e-05
7.322301e-05
7.249446e-05
7.174310e-05
7.096871e-05
7.017102e-05
6.934980e-05
6.850481e-05
6.763581e-05
6.674256e-05
6.582483e-05
6.488240e-05
6.391505e-05
6.292258e-05
6.190477e-05
6.086145e-05
5.979243e-05
5.869756e-05
5.757670e-05
5.642971e-05
5.525650e-05
5.405699e-05
5.283112e-05
5.157888e-05
5.030027e-05
4.899535e-05
4.766421e-05
4.630697e-05
4.492381e-05
4.351497e-05
4.208071e-05
4.062139e-05
3.913740e-05
3.762919e-05
3.609729e-05
3.454229e-05
3.296484e-05
3.136566e-05
2.974553e-05
2.810530e-05
2.644587e-05
2.476820e-05
2.307330e-05
2.136223e-05
1.963611e-05
1.789606e-05
1.614327e-05
1.437895e-05
1.260432e-05
1.082063e-05
9.029145e-06
7.231154e-06
5.427943e-06
3.620812e-06
1.811072e-06
6.922662e-11
