# vtk DataFile Version 3.0
Monodomain FEM
ASCII
DATASET POLYDATA
POINTS 601 float
0.000000e+00 0.000000e+00 0.000000e+00
6.667000e-03 0.000000e+00 0.000000e+00
1.333300e-02 0.000000e+00 0.000000e+00
2.000000e-02 0.000000e+00 0.000000e+00
2.666700e-02 0.000000e+00 0.000000e+00
3.333300e-02 0.000000e+00 0.000000e+00
4.000000e-02 0.000000e+00 0.000000e+00
4.666700e-02 0.000000e+00 0.000000e+00
5.333300e-02 0.000000e+00 0.000000e+00
6.000000e-02 0.000000e+00 0.000000e+00
6.666700e-02 0.000000e+00 0.000000e+00
7.333300e-02 0.000000e+00 0.000000e+00
8.000000e-02 0.000000e+00 0.000000e+00
8.666700e-02 0.000000e+00 0.000000e+00
9.333300e-02 0.000000e+00 0.000000e+00
1.000000e-01 0.000000e+00 0.000000e+00
1.066670e-01 0.000000e+00 0.000000e+00
1.133330e-01 0.000000e+00 0.000000e+00
1.200000e-01 0.000000e+00 0.000000e+00
1.266670e-01 0.000000e+00 0.000000e+00
1.333330e-01 0.000000e+00 0.000000e+00
1.400000e-01 0.000000e+00 0.000000e+00
1.466670e-01 0.000000e+00 0.000000e+00
1.533330e-01 0.000000e+00 0.000000e+00
1.600000e-01 0.000000e+00 0.000000e+00
1.666670e-01 0.000000e+00 0.000000e+00
1.733330e-01 0.000000e+00 0.000000e+00
1.800000e-01 0.000000e+00 0.000000e+00
1.866670e-01 0.000000e+00 0.000000e+00
1.933330e-01 0.000000e+00 0.000000e+00
2.000000e-01 0.000000e+00 0.000000e+00
2.066670e-01 0.000000e+00 0.000000e+00
2.133330e-01 0.000000e+00 0.000000e+00
2.200000e-01 0.000000e+00 0.000000e+00
2.266670e-01 0.000000e+00 0.000000e+00
2.333330e-01 0.000000e+00 0.000000e+00
2.400000e-01 0.000000e+00 0.000000e+00
2.466670e-01 0.000000e+00 0.000000e+00
2.533330e-01 0.000000e+00 0.000000e+00
2.600000e-01 0.000000e+00 0.000000e+00
2.666670e-01 0.000000e+00 0.000000e+00
2.733330e-01 0.000000e+00 0.000000e+00
2.800000e-01 0.000000e+00 0.000000e+00
2.866670e-01 0.000000e+00 0.000000e+00
2.933330e-01 0.000000e+00 0.000000e+00
3.000000e-01 0.000000e+00 0.000000e+00
3.066670e-01 0.000000e+00 0.000000e+00
3.133330e-01 0.000000e+00 0.000000e+00
3.200000e-01 0.000000e+00 0.000000e+00
3.266670e-01 0.000000e+00 0.000000e+00
3.333330e-01 0.000000e+00 0.000000e+00
3.400000e-01 0.000000e+00 0.000000e+00
3.466670e-01 0.000000e+00 0.000000e+00
3.533330e-01 0.000000e+00 0.000000e+00
3.600000e-01 0.000000e+00 0.000000e+00
3.666670e-01 0.000000e+00 0.000000e+00
3.733330e-01 0.000000e+00 0.000000e+00
3.800000e-01 0.000000e+00 0.000000e+00
3.866670e-01 0.000000e+00 0.000000e+00
3.933330e-01 0.000000e+00 0.000000e+00
4.000000e-01 0.000000e+00 0.000000e+00
4.066670e-01 0.000000e+00 0.000000e+00
4.133330e-01 0.000000e+00 0.000000e+00
4.200000e-01 0.000000e+00 0.000000e+00
4.266670e-01 0.000000e+00 0.000000e+00
4.333330e-01 0.000000e+00 0.000000e+00
4.400000e-01 0.000000e+00 0.000000e+00
4.466670e-01 0.000000e+00 0.000000e+00
4.533330e-01 0.000000e+00 0.000000e+00
4.600000e-01 0.000000e+00 0.000000e+00
4.666670e-01 0.000000e+00 0.000000e+00
4.733330e-01 0.000000e+00 0.000000e+00
4.800000e-01 0.000000e+00 0.000000e+00
4.866670e-01 0.000000e+00 0.000000e+00
4.933330e-01 0.000000e+00 0.000000e+00
5.000000e-01 0.000000e+00 0.000000e+00
5.066670e-01 0.000000e+00 0.000000e+00
5.133330e-01 0.000000e+00 0.000000e+00
5.200000e-01 0.000000e+00 0.000000e+00
5.266670e-01 0.000000e+00 0.000000e+00
5.333330e-01 0.000000e+00 0.000000e+00
5.400000e-01 0.000000e+00 0.000000e+00
5.466670e-01 0.000000e+00 0.000000e+00
5.533330e-01 0.000000e+00 0.000000e+00
5.600000e-01 0.000000e+00 0.000000e+00
5.666670e-01 0.000000e+00 0.000000e+00
5.733330e-01 0.000000e+00 0.000000e+00
5.800000e-01 0.000000e+00 0.000000e+00
5.866670e-01 0.000000e+00 0.000000e+00
5.933330e-01 0.000000e+00 0.000000e+00
6.000000e-01 0.000000e+00 0.000000e+00
6.066670e-01 0.000000e+00 0.000000e+00
6.133330e-01 0.000000e+00 0.000000e+00
6.200000e-01 0.000000e+00 0.000000e+00
6.266670e-01 0.000000e+00 0.000000e+00
6.333330e-01 0.000000e+00 0.000000e+00
6.400000e-01 0.000000e+00 0.000000e+00
6.466670e-01 0.000000e+00 0.000000e+00
6.533330e-01 0.000000e+00 0.000000e+00
6.600000e-01 0.000000e+00 0.000000e+00
6.666670e-01 0.000000e+00 0.000000e+00
6.733330e-01 0.000000e+00 0.000000e+00
6.800000e-01 0.000000e+00 0.000000e+00
6.866670e-01 0.000000e+00 0.000000e+00
6.933330e-01 0.000000e+00 0.000000e+00
7.000000e-01 0.000000e+00 0.000000e+00
7.066670e-01 0.000000e+00 0.000000e+00
7.133330e-01 0.000000e+00 0.000000e+00
7.200000e-01 0.000000e+00 0.000000e+00
7.266670e-01 0.000000e+00 0.000000e+00
7.333330e-01 0.000000e+00 0.000000e+00
7.400000e-01 0.000000e+00 0.000000e+00
7.466670e-01 0.000000e+00 0.000000e+00
7.533330e-01 0.000000e+00 0.000000e+00
7.600000e-01 0.000000e+00 0.000000e+00
7.666670e-01 0.000000e+00 0.000000e+00
7.733330e-01 0.000000e+00 0.000000e+00
7.800000e-01 0.000000e+00 0.000000e+00
7.866670e-01 0.000000e+00 0.000000e+00
7.933330e-01 0.000000e+00 0.000000e+00
8.000000e-01 0.000000e+00 0.000000e+00
8.066670e-01 0.000000e+00 0.000000e+00
8.133330e-01 0.000000e+00 0.000000e+00
8.200000e-01 0.000000e+00 0.000000e+00
8.266670e-01 0.000000e+00 0.000000e+00
8.333330e-01 0.000000e+00 0.000000e+00
8.400000e-01 0.000000e+00 0.000000e+00
8.466670e-01 0.000000e+00 0.000000e+00
8.533330e-01 0.000000e+00 0.000000e+00
8.600000e-01 0.000000e+00 0.000000e+00
8.666670e-01 0.000000e+00 0.000000e+00
8.733330e-01 0.000000e+00 0.000000e+00
8.800000e-01 0.000000e+00 0.000000e+00
8.866670e-01 0.000000e+00 0.000000e+00
8.933330e-01 0.000000e+00 0.000000e+00
9.000000e-01 0.000000e+00 0.000000e+00
9.066670e-01 0.000000e+00 0.000000e+00
9.133330e-01 0.000000e+00 0.000000e+00
9.200000e-01 0.000000e+00 0.000000e+00
9.266670e-01 0.000000e+00 0.000000e+00
9.333330e-01 0.000000e+00 0.000000e+00
9.400000e-01 0.000000e+00 0.000000e+00
9.466670e-01 0.000000e+00 0.000000e+00
9.533330e-01 0.000000e+00 0.000000e+00
9.600000e-01 0.000000e+00 0.000000e+00
9.666670e-01 0.000000e+00 0.000000e+00
9.733330e-01 0.000000e+00 0.000000e+00
9.800000e-01 0.000000e+00 0.000000e+00
9.866670e-01 0.000000e+00 0.000000e+00
9.933330e-01 0.000000e+00 0.000000e+00
1.000000e+00 0.000000e+00 0.000000e+00
1.006667e+00 0.000000e+00 0.000000e+00
1.013333e+00 0.000000e+00 0.000000e+00
1.020000e+00 0.000000e+00 0.000000e+00
1.026667e+00 0.000000e+00 0.000000e+00
1.033333e+00 0.000000e+00 0.000000e+00
1.040000e+00 0.000000e+00 0.000000e+00
1.046667e+00 0.000000e+00 0.000000e+00
1.053333e+00 0.000000e+00 0.000000e+00
1.060000e+00 0.000000e+00 0.000000e+00
1.066667e+00 0.000000e+00 0.000000e+00
1.073333e+00 0.000000e+00 0.000000e+00
1.080000e+00 0.000000e+00 0.000000e+00
1.086667e+00 0.000000e+00 0.000000e+00
1.093333e+00 0.000000e+00 0.000000e+00
1.100000e+00 0.000000e+00 0.000000e+00
1.106667e+00 0.000000e+00 0.000000e+00
1.113333e+00 0.000000e+00 0.000000e+00
1.120000e+00 0.000000e+00 0.000000e+00
1.126667e+00 0.000000e+00 0.000000e+00
1.133333e+00 0.000000e+00 0.000000e+00
1.140000e+00 0.000000e+00 0.000000e+00
1.146667e+00 0.000000e+00 0.000000e+00
1.153333e+00 0.000000e+00 0.000000e+00
1.160000e+00 0.000000e+00 0.000000e+00
1.166667e+00 0.000000e+00 0.000000e+00
1.173333e+00 0.000000e+00 0.000000e+00
1.180000e+00 0.000000e+00 0.000000e+00
1.186667e+00 0.000000e+00 0.000000e+00
1.193333e+00 0.000000e+00 0.000000e+00
1.200000e+00 0.000000e+00 0.000000e+00
1.206667e+00 0.000000e+00 0.000000e+00
1.213333e+00 0.000000e+00 0.000000e+00
1.220000e+00 0.000000e+00 0.000000e+00
1.226667e+00 0.000000e+00 0.000000e+00
1.233333e+00 0.000000e+00 0.000000e+00
1.240000e+00 0.000000e+00 0.000000e+00
1.246667e+00 0.000000e+00 0.000000e+00
1.253333e+00 0.000000e+00 0.000000e+00
1.260000e+00 0.000000e+00 0.000000e+00
1.266667e+00 0.000000e+00 0.000000e+00
1.273333e+00 0.000000e+00 0.000000e+00
1.280000e+00 0.000000e+00 0.000000e+00
1.286667e+00 0.000000e+00 0.000000e+00
1.293333e+00 0.000000e+00 0.000000e+00
1.300000e+00 0.000000e+00 0.000000e+00
1.306667e+00 0.000000e+00 0.000000e+00
1.313333e+00 0.000000e+00 0.000000e+00
1.320000e+00 0.000000e+00 0.000000e+00
1.326667e+00 0.000000e+00 0.000000e+00
1.333333e+00 0.000000e+00 0.000000e+00
1.340000e+00 0.000000e+00 0.000000e+00
1.346667e+00 0.000000e+00 0.000000e+00
1.353333e+00 0.000000e+00 0.000000e+00
1.360000e+00 0.000000e+00 0.000000e+00
1.366667e+00 0.000000e+00 0.000000e+00
1.373333e+00 0.000000e+00 0.000000e+00
1.380000e+00 0.000000e+00 0.000000e+00
1.386667e+00 0.000000e+00 0.000000e+00
1.393333e+00 0.000000e+00 0.000000e+00
1.400000e+00 0.000000e+00 0.000000e+00
1.406667e+00 0.000000e+00 0.000000e+00
1.413333e+00 0.000000e+00 0.000000e+00
1.420000e+00 0.000000e+00 0.000000e+00
1.426667e+00 0.000000e+00 0.000000e+00
1.433333e+00 0.000000e+00 0.000000e+00
1.440000e+00 0.000000e+00 0.000000e+00
1.446667e+00 0.000000e+00 0.000000e+00
1.453333e+00 0.000000e+00 0.000000e+00
1.460000e+00 0.000000e+00 0.000000e+00
1.466667e+00 0.000000e+00 0.000000e+00
1.473333e+00 0.000000e+00 0.000000e+00
1.480000e+00 0.000000e+00 0.000000e+00
1.486667e+00 0.000000e+00 0.000000e+00
1.493333e+00 0.000000e+00 0.000000e+00
1.500000e+00 0.000000e+00 0.000000e+00
1.506667e+00 0.000000e+00 0.000000e+00
1.513333e+00 0.000000e+00 0.000000e+00
1.520000e+00 0.000000e+00 0.000000e+00
1.526667e+00 0.000000e+00 0.000000e+00
1.533333e+00 0.000000e+00 0.000000e+00
1.540000e+00 0.000000e+00 0.000000e+00
1.546667e+00 0.000000e+00 0.000000e+00
1.553333e+00 0.000000e+00 0.000000e+00
1.560000e+00 0.000000e+00 0.000000e+00
1.566667e+00 0.000000e+00 0.000000e+00
1.573333e+00 0.000000e+00 0.000000e+00
1.580000e+00 0.000000e+00 0.000000e+00
1.586667e+00 0.000000e+00 0.000000e+00
1.593333e+00 0.000000e+00 0.000000e+00
1.600000e+00 0.000000e+00 0.000000e+00
1.606667e+00 0.000000e+00 0.000000e+00
1.613333e+00 0.000000e+00 0.000000e+00
1.620000e+00 0.000000e+00 0.000000e+00
1.626667e+00 0.000000e+00 0.000000e+00
1.633333e+00 0.000000e+00 0.000000e+00
1.640000e+00 0.000000e+00 0.000000e+00
1.646667e+00 0.000000e+00 0.000000e+00
1.653333e+00 0.000000e+00 0.000000e+00
1.660000e+00 0.000000e+00 0.000000e+00
1.666667e+00 0.000000e+00 0.000000e+00
1.673333e+00 0.000000e+00 0.000000e+00
1.680000e+00 0.000000e+00 0.000000e+00
1.686667e+00 0.000000e+00 0.000000e+00
[...]
POINT_DATA 601
SCALARS vm float 1
LOOKUP_TABLE default
1.252730e-09
5.370860e-05
1.072201e-04
1.603389e-04
2.128701e-04
2.646223e-04
3.135094e-04
3.596264e-04
4.050684e-04
4.498496e-04
4.939798e-04
5.374681e-04
5.803243e-04
6.225586e-04
6.641816e-04
7.052040e-04
7.456369e-04
7.854913e-04
8.247782e-04
8.635088e-04
9.016941e-04
9.393448e-04
9.764720e-04
1.013086e-03
1.049198e-03
1.084818e-03
1.119956e-03
1.154623e-03
1.188828e-03
1.222581e-03
1.255892e-03
1.288770e-03
1.321225e-03
1.353266e-03
1.384902e-03
1.416142e-03
1.446995e-03
1.477470e-03
1.507575e-03
1.537320e-03
1.566712e-03
1.595760e-03
1.624472e-03
1.652858e-03
1.680924e-03
1.708679e-03
1.736132e-03
1.763289e-03
1.790160e-03
1.816751e-03
1.843072e-03
1.869128e-03
1.894929e-03
1.920481e-03
1.945792e-03
1.970870e-03
1.995722e-03
2.020356e-03
2.044778e-03
2.068997e-03
2.093019e-03
2.116851e-03
2.140500e-03
2.163974e-03
2.187280e-03
2.210424e-03
2.233414e-03
2.256256e-03
2.278957e-03
2.301524e-03
2.323964e-03
2.346283e-03
2.368488e-03
2.390586e-03
2.412583e-03
2.434485e-03
2.456300e-03
2.478034e-03
2.499692e-03
2.521282e-03
2.542810e-03
2.564282e-03
2.585704e-03
2.607083e-03
2.628424e-03
2.649735e-03
2.671020e-03
2.692287e-03
2.713540e-03
2.734787e-03
2.756033e-03
2.777283e-03
2.798544e-03
2.819822e-03
2.841122e-03
2.862449e-03
2.883810e-03
2.905210e-03
2.926655e-03
2.948149e-03
2.969698e-03
2.991307e-03
3.012982e-03
3.034727e-03
3.056548e-03
3.078448e-03
3.100433e-03
3.122507e-03
3.144675e-03
3.166940e-03
3.189307e-03
3.211779e-03
3.234359e-03
3.257052e-03
3.279859e-03
3.302784e-03
3.325829e-03
3.348996e-03
3.372286e-03
3.395701e-03
3.419241e-03
3.442906e-03
3.466695e-03
3.490608e-03
3.514642e-03
3.538794e-03
3.563061e-03
3.587437e-03
3.611917e-03
3.636494e-03
3.661158e-03
3.685899e-03
3.710705e-03
3.735561e-03
3.760449e-03
3.785351e-03
3.810241e-03
3.835093e-03
3.859874e-03
3.884548e-03
3.909068e-03
3.933384e-03
3.957435e-03
3.981154e-03
4.004498e-03
4.027619e-03
4.051891e-03
4.085892e-03
4.180291e-03
4.631134e-03
7.164575e-03
2.388192e-03
1.582071e-03
1.456833e-03
1.448067e-03
1.458935e-03
1.472827e-03
1.486898e-03
1.500669e-03
1.514061e-03
1.527068e-03
1.539695e-03
1.551948e-03
1.563833e-03
1.575355e-03
1.586521e-03
1.597334e-03
1.607799e-03
1.617922e-03
1.627704e-03
1.637151e-03
1.646264e-03
1.655047e-03
1.663503e-03
1.671634e-03
1.679442e-03
1.686929e-03
1.694098e-03
1.700949e-03
1.707485e-03
1.713707e-03
1.719617e-03
1.725215e-03
1.730504e-03
1.735484e-03
1.740156e-03
1.744521e-03
1.748580e-03
1.752334e-03
1.755784e-03
1.758930e-03
1.761772e-03
1.764312e-03
1.766549e-03
1.768484e-03
1.770118e-03
1.771449e-03
1.772480e-03
1.773208e-03
1.773634e-03
1.773759e-03
1.773582e-03
1.773102e-03
1.772319e-03
1.771232e-03
1.769842e-03
1.768147e-03
1.766146e-03
1.763840e-03
1.761226e-03
1.758304e-03
1.755073e-03
1.751531e-03
1.747678e-03
1.743511e-03
1.739031e-03
1.734234e-03
1.729121e-03
1.723688e-03
1.717934e-03
1.711858e-03
1.705457e-03
1.698730e-03
1.691675e-03
1.684288e-03
1.676569e-03
1.668514e-03
1.660123e-03
1.651391e-03
1.642316e-03
1.632896e-03
1.623129e-03
1.613011e-03
1.602539e-03
1.591712e-03
1.580525e-03
1.568976e-03
1.557061e-03
1.544778e-03
1.532123e-03
1.519093e-03
1.505685e-03
1.491896e-03
1.477721e-03
1.463158e-03
1.448203e-03
1.432853e-03
1.417104e-03
1.400952e-03
1.384395e-03
1.367428e-03
1.350049e-03
1.332253e-03
1.314038e-03
1.295400e-03
1.276336e-03
1.256843e-03
1.236917e-03
1.216556e-03
1.195758e-03
1.174519e-03
1.152838e-03
1.130712e-03
1.108139e-03
1.085119e-03
1.061649e-03
1.037730e-03
1.013362e-03
9.885430e-04
9.632756e-04
9.375608e-04
9.114005e-04
8.847975e-04
8.577554e-04
8.302785e-04
8.023720e-04
7.740420e-04
7.452955e-04
7.161408e-04
6.865869e-04
6.566440e-04
6.263235e-04
5.956375e-04
5.645995e-04
5.332238e-04
5.015259e-04
4.695219e-04
4.372289e-04
4.046648e-04
3.718483e-04
3.387986e-04
3.055353e-04
2.720788e-04
2.384496e-04
2.046688e-04
1.707575e-04
1.367372e-04
1.026295e-04
6.845625e-05
3.423929e-05
1.324068e-09
2.388192e-03
1.582071e-03
1.456833e-03
1.448067e-03
1.458935e-03
1.472827e-03
1.486898e-03
1.500669e-03
1.514061e-03
1.527068e-03
1.539695e-03
1.551948e-03
1.563833e-03
1.575355e-03
1.586521e-03
1.597334e-03
1.607799e-03
1.617922e-03
1.627704e-03
1.637151e-03
1.646264e-03
1.655047e-03
1.663503e-03
1.671634e-03
1.679442e-03
1.686929e-03
1.694098e-03
1.700949e-03
1.707485e-03
1.713707e-03
1.719617e-03
1.725215e-03
1.730504e-03
1.735484e-03
1.740156e-03
1.744521e-03
1.748580e-03
1.752334e-03
1.755784e-03
1.758930e-03
1.761772e-03
1.764312e-03
1.766549e-03
1.768484e-03
1.770118e-03
1.771449e-03
1.772480e-03
1.773208e-03
1.773634e-03
1.773759e-03
1.773582e-03
1.773102e-03
1.772319e-03
1.771232e-03
1.769842e-03
1.768147e-03
1.766146e-03
1.763840e-03
1.761226e-03
1.758304e-03
1.755073e-03
1.751531e-03
1.747678e-03
1.743511e-03
1.739031e-03
1.734234e-03
1.729121e-03
1.723688e-03
1.717934e-03
1.711858e-03
1.705457e-03
1.698730e-03
1.691675e-03
1.684288e-03
1.676569e-03
1.668514e-03
1.660123e-03
1.651391e-03
1.642316e-03
1.632896e-03
1.623129e-03
1.613011e-03
1.602539e-03
1.591712e-03
1.580525e-03
1.568976e-03
1.557061e-03
1.544778e-03
1.532123e-03
1.519093e-03
1.505685e-03
1.491896e-03
1.477721e-03
1.463158e-03
1.448203e-03
1.432853e-03
1.417104e-03
1.400952e-03
1.384395e-03
1.367428e-03
1.350049e-03
1.332253e-03
1.314038e-03
1.295400e-03
1.276336e-03
1.256843e-03
1.236917e-03
1.216556e-03
1.195758e-03
1.174519e-03
1.152838e-03
1.130712e-03
1.108139e-03
1.085119e-03
1.061649e-03
1.037730e-03
1.013362e-03
9.885430e-04
9.632756e-04
9.375608e-04
9.114005e-04
8.847975e-04
8.577554e-04
8.302785e-04
8.023720e-04
7.740420e-04
7.452955e-04
7.161408e-04
6.865869e-04
6.566440e-04
6.263235e-04
5.956375e-04
5.645995e-04
5.332238e-04
5.015259e-04
4.695219e-04
4.372289e-04
4.046648e-04
3.718483e-04
3.387986e-04
3.055353e-04
2.720788e-04
2.384496e-04
2.046688e-04
1.707575e-04
1.367372e-04
1.026295e-04
6.845625e-05
3.423929e-05
1.324068e-09
2.388192e-03
1.582071e-03
1.456833e-03
1.448067e-03
1.458935e-03
1.472827e-03
1.486898e-03
1.500669e-03
1.514061e-03
1.527068e-03
1.539695e-03
1.551948e-03
1.563833e-03
1.575355e-03
1.586521e-03
1.597334e-03
1.607799e-03
1.617922e-03
1.627704e-03
1.637151e-03
1.646264e-03
1.655047e-03
1.663503e-03
1.671634e-03
1.679442e-03
1.686929e-03
1.694098e-03
1.700949e-03
1.707485e-03
1.713707e-03
1.719617e-03
1.725215e-03
1.730504e-03
1.735484e-03
1.740156e-03
1.744521e-03
1.748580e-03
1.752334e-03
1.755784e-03
1.758930e-03
1.761772e-03
1.764312e-03
1.766549e-03
1.768484e-03
1.770118e-03
1.771449e-03
1.772480e-03
1.773208e-03
1.773634e-03
1.773759e-03
1.773582e-03
1.773102e-03
1.772319e-03
1.771232e-03
1.769842e-03
1.768147e-03
1.766146e-03
1.763840e-03
1.761226e-03
1.758304e-03
1.755073e-03
1.751531e-03
1.747678e-03
1.743511e-03
1.739031e-03
1.734234e-03
1.729121e-03
1.723688e-03
1.717934e-03
1.711858e-03
1.705457e-03
1.698730e-03
1.691675e-03
1.684288e-03
1.676569e-03
1.668514e-03
1.660123e-03
1.651391e-03
1.642316e-03
1.632896e-03
1.623129e-03
1.613011e-03
1.602539e-03
1.591712e-03
1.580525e-03
1.568976e-03
1.557061e-03
1.544778e-03
1.532123e-03
1.519093e-03
1.505685e-03
1.491896e-03
1.477721e-03
1.463158e-03
1.448203e-03
1.432853e-03
1.417104e-03
1.400952e-03
1.384395e-03
1.367428e-03
1.350049e-03
1.332253e-03
1.314038e-03
1.295400e-03
1.276336e-03
1.256843e-03
1.236917e-03
1.216556e-03
1.195758e-03
1.174519e-03
1.152838e-03
1.130712e-03
1.108139e-03
1.085119e-03
1.061649e-03
1.037730e-03
1.013362e-03
9.885430e-04
9.632756e-04
9.375608e-04
9.114005e-04
8.847975e-04
8.577554e-04
8.302785e-04
8.023720e-04
7.740420e-04
7.452955e-04
7.161408e-04
6.865869e-04
6.566440e-04
6.263235e-04
5.956375e-04
5.645995e-04
5.332238e-04
5.015259e-04
4.695219e-04
4.372289e-04
4.046648e-04
3.718483e-04
3.387986e-04
3.055353e-04
2.720788e-04
2.384496e-04
2.046688e-04
1.707575e-04
1.367372e-04
1.026295e-04
6.845625e-05
3.423929e-05
1.324068e-09
