# vtk DataFile Version 3.0
Monodomain FEM
ASCII
DATASET POLYDATA
POINTS 601 float
0.000000e+00 0.000000e+00 0.000000e+00
6.667000e-03 0.000000e+00 0.000000e+00
1.333300e-02 0.000000e+00 0.000000e+00
2.000000e-02 0.000000e+00 0.000000e+00
2.666700e-02 0.000000e+00 0.000000e+00
3.333300e-02 0.000000e+00 0.000000e+00
4.000000e-02 0.000000e+00 0.000000e+00
4.666700e-02 0.000000e+00 0.000000e+00
5.333300e-02 0.000000e+00 0.000000e+00
6.000000e-02 0.000000e+00 0.000000e+00
6.666700e-02 0.000000e+00 0.000000e+00
7.333300e-02 0.000000e+00 0.000000e+00
8.000000e-02 0.000000e+00 0.000000e+00
8.666700e-02 0.000000e+00 0.000000e+00
9.333300e-02 0.000000e+00 0.000000e+00
1.000000e-01 0.000000e+00 0.000000e+00
1.066670e-01 0.000000e+00 0.000000e+00
1.133330e-01 0.000000e+00 0.000000e+00
1.200000e-01 0.000000e+00 0.000000e+00
1.266670e-01 0.000000e+00 0.000000e+00
1.333330e-01 0.000000e+00 0.000000e+00
1.400000e-01 0.000000e+00 0.000000e+00
1.466670e-01 0.000000e+00 0.000000e+00
1.533330e-01 0.000000e+00 0.000000e+00
1.600000e-01 0.000000e+00 0.000000e+00
1.666670e-01 0.000000e+00 0.000000e+00
1.733330e-01 0.000000e+00 0.000000e+00
1.800000e-01 0.000000e+00 0.000000e+00
1.866670e-01 0.000000e+00 0.000000e+00
1.933330e-01 0.000000e+00 0.000000e+00
2.000000e-01 0.000000e+00 0.000000e+00
2.066670e-01 0.000000e+00 0.000000e+00
2.133330e-01 0.000000e+00 0.000000e+00
2.200000e-01 0.000000e+00 0.000000e+00
2.266670e-01 0.000000e+00 0.000000e+00
2.333330e-01 0.000000e+00 0.000000e+00
2.400000e-01 0.000000e+00 0.000000e+00
2.466670e-01 0.000000e+00 0.000000e+00
2.533330e-01 0.000000e+00 0.000000e+00
2.600000e-01 0.000000e+00 0.000000e+00
2.666670e-01 0.000000e+00 0.000000e+00
2.733330e-01 0.000000e+00 0.000000e+00
2.800000e-01 0.000000e+00 0.000000e+00
2.866670e-01 0.000000e+00 0.000000e+00
2.933330e-01 0.000000e+00 0.000000e+00
3.000000e-01 0.000000e+00 0.000000e+00
3.066670e-01 0.000000e+00 0.000000e+00
3.133330e-01 0.000000e+00 0.000000e+00
3.200000e-01 0.000000e+00 0.000000e+00
3.266670e-01 0.000000e+00 0.000000e+00
3.333330e-01 0.000000e+00 0.000000e+00
3.400000e-01 0.000000e+00 0.000000e+00
3.466670e-01 0.000000e+00 0.000000e+00
3.533330e-01 0.000000e+00 0.000000e+00
3.600000e-01 0.000000e+00 0.000000e+00
3.666670e-01 0.000000e+00 0.000000e+00
3.733330e-01 0.000000e+00 0.000000e+00
3.800000e-01 0.000000e+00 0.000000e+00
3.866670e-01 0.000000e+00 0.000000e+00
3.933330e-01 0.000000e+00 0.000000e+00
4.000000e-01 0.000000e+00 0.000000e+00
4.066670e-01 0.000000e+00 0.000000e+00
4.133330e-01 0.000000e+00 0.000000e+00
4.200000e-01 0.000000e+00 0.000000e+00
4.266670e-01 0.000000e+00 0.000000e+00
4.333330e-01 0.000000e+00 0.000000e+00
4.400000e-01 0.000000e+00 0.000000e+00
4.466670e-01 0.000000e+00 0.000000e+00
4.533330e-01 0.000000e+00 0.000000e+00
4.600000e-01 0.000000e+00 0.000000e+00
4.666670e-01 0.000000e+00 0.000000e+00
4.733330e-01 0.000000e+00 0.000000e+00
4.800000e-01 0.000000e+00 0.000000e+00
4.866670e-01 0.000000e+00 0.000000e+00
4.933330e-01 0.000000e+00 0.000000e+00
5.000000e-01 0.000000e+00 0.000000e+00
5.066670e-01 0.000000e+00 0.000000e+00
5.133330e-01 0.000000e+00 0.000000e+00
5.200000e-01 0.000000e+00 0.000000e+00
5.266670e-01 0.000000e+00 0.000000e+00
5.333330e-01 0.000000e+00 0.000000e+00
5.400000e-01 0.000000e+00 0.000000e+00
5.466670e-01 0.000000e+00 0.000000e+00
5.533330e-01 0.000000e+00 0.000000e+00
5.600000e-01 0.000000e+00 0.000000e+00
5.666670e-01 0.000000e+00 0.000000e+00
5.733330e-01 0.000000e+00 0.000000e+00
5.800000e-01 0.000000e+00 0.000000e+00
5.866670e-01 0.000000e+00 0.000000e+00
5.933330e-01 0.000000e+00 0.000000e+00
6.000000e-01 0.000000e+00 0.000000e+00
6.066670e-01 0.000000e+00 0.000000e+00
6.133330e-01 0.000000e+00 0.000000e+00
6.200000e-01 0.000000e+00 0.000000e+00
6.266670e-01 0.000000e+00 0.000000e+00
6.333330e-01 0.000000e+00 0.000000e+00
6.400000e-01 0.000000e+00 0.000000e+00
6.466670e-01 0.000000e+00 0.000000e+00
6.533330e-01 0.000000e+00 0.000000e+00
6.600000e-01 0.000000e+00 0.000000e+00
6.666670e-01 0.000000e+00 0.000000e+00
6.733330e-01 0.000000e+00 0.000000e+00
6.800000e-01 0.000000e+00 0.000000e+00
6.866670e-01 0.000000e+00 0.000000e+00
6.933330e-01 0.000000e+00 0.000000e+00
7.000000e-01 0.000000e+00 0.000000e+00
7.066670e-01 0.000000e+00 0.000000e+00
7.133330e-01 0.000000e+00 0.000000e+00
7.200000e-01 0.000000e+00 0.000000e+00
7.266670e-01 0.000000e+00 0.000000e+00
7.333330e-01 0.000000e+00 0.000000e+00
7.400000e-01 0.000000e+00 0.000000e+00
7.466670e-01 0.000000e+00 0.000000e+00
7.533330e-01 0.000000e+00 0.000000e+00
7.600000e-01 0.000000e+00 0.000000e+00
7.666670e-01 0.000000e+00 0.000000e+00
7.733330e-01 0.000000e+00 0.000000e+00
7.800000e-01 0.000000e+00 0.000000e+00
7.866670e-01 0.000000e+00 0.000000e+00
7.933330e-01 0.000000e+00 0.000000e+00
8.000000e-01 0.000000e+00 0.000000e+00
8.066670e-01 0.000000e+00 0.000000e+00
8.133330e-01 0.000000e+00 0.000000e+00
8.200000e-01 0.000000e+00 0.000000e+00
8.266670e-01 0.000000e+00 0.000000e+00
8.333330e-01 0.000000e+00 0.000000e+00
8.400000e-01 0.000000e+00 0.000000e+00
8.466670e-01 0.000000e+00 0.000000e+00
8.533330e-01 0.000000e+00 0.000000e+00
8.600000e-01 0.000000e+00 0.000000e+00
8.666670e-01 0.000000e+00 0.000000e+00
8.733330e-01 0.000000e+00 0.000000e+00
8.800000e-01 0.000000e+00 0.000000e+00
8.866670e-01 0.000000e+00 0.000000e+00
8.933330e-01 0.000000e+00 0.000000e+00
9.000000e-01 0.000000e+00 0.000000e+00
9.066670e-01 0.000000e+00 0.000000e+00
9.133330e-01 0.000000e+00 0.000000e+00
9.200000e-01 0.000000e+00 0.000000e+00
9.266670e-01 0.000000e+00 0.000000e+00
9.333330e-01 0.000000e+00 0.000000e+00
9.400000e-01 0.000000e+00 0.000000e+00
9.466670e-01 0.000000e+00 0.000000e+00
9.533330e-01 0.000000e+00 0.000000e+00
9.600000e-01 0.000000e+00 0.000000e+00
9.666670e-01 0.000000e+00 0.000000e+00
9.733330e-01 0.000000e+00 0.000000e+00
9.800000e-01 0.000000e+00 0.000000e+00
9.866670e-01 0.000000e+00 0.000000e+00
9.933330e-01 0.000000e+00 0.000000e+00
1.000000e+00 0.000000e+00 0.000000e+00
1.006667e+00 0.000000e+00 0.000000e+00
1.013333e+00 0.000000e+00 0.000000e+00
1.020000e+00 0.000000e+00 0.000000e+00
1.026667e+00 0.000000e+00 0.000000e+00
1.033333e+00 0.000000e+00 0.000000e+00
1.040000e+00 0.000000e+00 0.000000e+00
1.046667e+00 0.000000e+00 0.000000e+00
1.053333e+00 0.000000e+00 0.000000e+00
1.060000e+00 0.000000e+00 0.000000e+00
1.066667e+00 0.000000e+00 0.000000e+00
1.073333e+00 0.000000e+00 0.000000e+00
1.080000e+00 0.000000e+00 0.000000e+00
1.086667e+00 0.000000e+00 0.000000e+00
1.093333e+00 0.000000e+00 0.000000e+00
1.100000e+00 0.000000e+00 0.000000e+00
1.106667e+00 0.000000e+00 0.000000e+00
1.113333e+00 0.000000e+00 0.000000e+00
1.120000e+00 0.000000e+00 0.000000e+00
1.126667e+00 0.000000e+00 0.000000e+00
1.133333e+00 0.000000e+00 0.000000e+00
1.140000e+00 0.000000e+00 0.000000e+00
1.146667e+00 0.000000e+00 0.000000e+00
1.153333e+00 0.000000e+00 0.000000e+00
1.160000e+00 0.000000e+00 0.000000e+00
1.166667e+00 0.000000e+00 0.000000e+00
1.173333e+00 0.000000e+00 0.000000e+00
1.180000e+00 0.000000e+00 0.000000e+00
1.186667e+00 0.000000e+00 0.000000e+00
1.193333e+00 0.000000e+00 0.000000e+00
1.200000e+00 0.000000e+00 0.000000e+00
1.206667e+00 0.000000e+00 0.000000e+00
1.213333e+00 0.000000e+00 0.000000e+00
1.220000e+00 0.000000e+00 0.000000e+00
1.226667e+00 0.000000e+00 0.000000e+00
1.233333e+00 0.000000e+00 0.000000e+00
1.240000e+00 0.000000e+00 0.000000e+00
1.246667e+00 0.000000e+00 0.000000e+00
1.253333e+00 0.000000e+00 0.000000e+00
1.260000e+00 0.000000e+00 0.000000e+00
1.266667e+00 0.000000e+00 0.000000e+00
1.273333e+00 0.000000e+00 0.000000e+00
1.280000e+00 0.000000e+00 0.000000e+00
1.286667e+00 0.000000e+00 0.000000e+00
1.293333e+00 0.000000e+00 0.000000e+00
1.300000e+00 0.000000e+00 0.000000e+00
1.306667e+00 0.000000e+00 0.000000e+00
1.313333e+00 0.000000e+00 0.000000e+00
1.320000e+00 0.000000e+00 0.000000e+00
1.326667e+00 0.000000e+00 0.000000e+00
1.333333e+00 0.000000e+00 0.000000e+00
1.340000e+00 0.000000e+00 0.000000e+00
1.346667e+00 0.000000e+00 0.000000e+00
1.353333e+00 0.000000e+00 0.000000e+00
1.360000e+00 0.000000e+00 0.000000e+00
1.366667e+00 0.000000e+00 0.000000e+00
1.373333e+00 0.000000e+00 0.000000e+00
1.380000e+00 0.000000e+00 0.000000e+00
1.386667e+00 0.000000e+00 0.000000e+00
1.393333e+00 0.000000e+00 0.000000e+00
1.400000e+00 0.000000e+00 0.000000e+00
1.406667e+00 0.000000e+00 0.000000e+00
1.413333e+00 0.000000e+00 0.000000e+00
1.420000e+00 0.000000e+00 0.000000e+00
1.426667e+00 0.000000e+00 0.000000e+00
1.433333e+00 0.000000e+00 0.000000e+00
1.440000e+00 0.000000e+00 0.000000e+00
1.446667e+00 0.000000e+00 0.000000e+00
1.453333e+00 0.000000e+00 0.000000e+00
1.460000e+00 0.000000e+00 0.000000e+00
1.466667e+00 0.000000e+00 0.000000e+00
1.473333e+00 0.000000e+00 0.000000e+00
1.480000e+00 0.000000e+00 0.000000e+00
1.486667e+00 0.000000e+00 0.000000e+00
1.493333e+00 0.000000e+00 0.000000e+00
1.500000e+00 0.000000e+00 0.000000e+00
1.506667e+00 0.000000e+00 0.000000e+00
1.513333e+00 0.000000e+00 0.000000e+00
1.520000e+00 0.000000e+00 0.000000e+00
1.526667e+00 0.000000e+00 0.000000e+00
1.533333e+00 0.000000e+00 0.000000e+00
1.540000e+00 0.000000e+00 0.000000e+00
1.546667e+00 0.000000e+00 0.000000e+00
1.553333e+00 0.000000e+00 0.000000e+00
1.560000e+00 0.000000e+00 0.000000e+00
1.566667e+00 0.000000e+00 0.000000e+00
1.573333e+00 0.000000e+00 0.000000e+00
1.580000e+00 0.000000e+00 0.000000e+00
1.586667e+00 0.000000e+00 0.000000e+00
1.593333e+00 0.000000e+00 0.000000e+00
1.600000e+00 0.000000e+00 0.000000e+00
1.606667e+00 0.000000e+00 0.000000e+00
1.613333e+00 0.000000e+00 0.000000e+00
1.620000e+00 0.000000e+00 0.000000e+00
1.626667e+00 0.000000e+00 0.000000e+00
1.633333e+00 0.000000e+00 0.000000e+00
1.640000e+00 0.000000e+00 0.000000e+00
1.646667e+00 0.000000e+00 0.000000e+00
1.653333e+00 0.000000e+00 0.000000e+00
1.660000e+00 0.000000e+00 0.000000e+00
1.666667e+00 0.000000e+00 0.000000e+00
1.673333e+00 0.000000e+00 0.000000e+00
1.680000e+00 0.000000e+00 0.000000e+00
1.686667e+00 0.000000e+00 0.000000e+00
[...]
POINT_DATA 601
SCALARS vm float 1
LOOKUP_TABLE default
1.037650e-09
5.084677e-05
1.014779e-04
1.516788e-04
2.012365e-04
2.499414e-04
2.954954e-04
3.380049e-04
3.797811e-04
4.208410e-04
4.611963e-04
5.008586e-04
5.398396e-04
5.781518e-04
6.158078e-04
6.528207e-04
6.892035e-04
7.249693e-04
7.601313e-04
7.947027e-04
8.286965e-04
8.621255e-04
8.950025e-04
9.273401e-04
9.591507e-04
9.904466e-04
1.021240e-03
1.051542e-03
1.081365e-03
1.110720e-03
1.139618e-03
1.168072e-03
1.196090e-03
1.223685e-03
1.250866e-03
1.277645e-03
1.304032e-03
1.330036e-03
1.355668e-03
1.380939e-03
1.405856e-03
1.430431e-03
1.454673e-03
1.478592e-03
1.502196e-03
1.525496e-03
1.548500e-03
1.571218e-03
1.593659e-03
1.615831e-03
1.637743e-03
1.659405e-03
1.680825e-03
1.702012e-03
1.722973e-03
1.743719e-03
1.764256e-03
1.784595e-03
1.804742e-03
1.824705e-03
1.844494e-03
1.864117e-03
1.883580e-03
1.902893e-03
1.922063e-03
1.941097e-03
1.960005e-03
1.978793e-03
1.997469e-03
2.016041e-03
2.034517e-03
2.052903e-03
2.071208e-03
2.089439e-03
2.107603e-03
2.125707e-03
2.143760e-03
2.161768e-03
2.179738e-03
2.197678e-03
2.215594e-03
2.233495e-03
2.251386e-03
2.269275e-03
2.287169e-03
2.305075e-03
2.323000e-03
2.340950e-03
2.358933e-03
2.376955e-03
2.395023e-03
2.413143e-03
2.431323e-03
2.449568e-03
2.467886e-03
2.486282e-03
2.504764e-03
2.523336e-03
2.542007e-03
2.560782e-03
2.579666e-03
2.598666e-03
2.617789e-03
2.637039e-03
2.656422e-03
2.675945e-03
2.695611e-03
2.715428e-03
2.735399e-03
2.755530e-03
2.775825e-03
2.796289e-03
2.816926e-03
2.837741e-03
2.858736e-03
2.879916e-03
2.901283e-03
2.922840e-03
2.944589e-03
2.966532e-03
2.988669e-03
3.011003e-03
3.033532e-03
3.056256e-03
3.079173e-03
3.102281e-03
3.125576e-03
3.149054e-03
3.172709e-03
3.196533e-03
3.220517e-03
3.244651e-03
3.268922e-03
3.293315e-03
3.317812e-03
3.342391e-03
3.367027e-03
3.391693e-03
3.416352e-03
3.440966e-03
3.465487e-03
3.489857e-03
3.514013e-03
3.537882e-03
3.561407e-03
3.584708e-03
3.608993e-03
3.641932e-03
3.728944e-03
4.135560e-03
6.410143e-03
2.136714e-03
1.417020e-03
1.306728e-03
1.300638e-03
1.312070e-03
1.326159e-03
1.340361e-03
1.354248e-03
1.367754e-03
1.380874e-03
1.393614e-03
1.405981e-03
1.417983e-03
1.429626e-03
1.440917e-03
1.451862e-03
1.462465e-03
1.472733e-03
1.482669e-03
1.492277e-03
1.501563e-03
1.510528e-03
1.519177e-03
1.527512e-03
1.535537e-03
1.543253e-03
1.550664e-03
1.557772e-03
1.564578e-03
1.571085e-03
1.577295e-03
1.583209e-03
1.588829e-03
1.594156e-03
1.599192e-03
1.603939e-03
1.608397e-03
1.612567e-03
1.616452e-03
1.620050e-03
1.623364e-03
1.626394e-03
1.629141e-03
1.631605e-03
1.633787e-03
1.635687e-03
1.637305e-03
1.638642e-03
1.639697e-03
1.640471e-03
1.640963e-03
1.641173e-03
1.641101e-03
1.640747e-03
1.640110e-03
1.639189e-03
1.637983e-03
1.636493e-03
1.634716e-03
1.632653e-03
1.630301e-03
1.627660e-03
1.624728e-03
1.621505e-03
1.617988e-03
1.614176e-03
1.610067e-03
1.605660e-03
1.600952e-03
1.595942e-03
1.590628e-03
1.585007e-03
1.579078e-03
1.572837e-03
1.566283e-03
1.559412e-03
1.552223e-03
1.544713e-03
1.536878e-03
1.528716e-03
1.520224e-03
1.511399e-03
1.502237e-03
1.492736e-03
1.482891e-03
1.472700e-03
1.462160e-03
1.451266e-03
1.440014e-03
1.428402e-03
1.416425e-03
1.404080e-03
1.391363e-03
1.378269e-03
1.364795e-03
1.350936e-03
1.336690e-03
1.322051e-03
1.307015e-03
1.291579e-03
1.275738e-03
1.259489e-03
1.242827e-03
1.225749e-03
1.208250e-03
1.190327e-03
1.171976e-03
1.153193e-03
1.133976e-03
1.114321e-03
1.094225e-03
1.073685e-03
1.052699e-03
1.031265e-03
1.009381e-03
9.870457e-04
9.642583e-04
9.410185e-04
9.173264e-04
8.931829e-04
8.685895e-04
8.435485e-04
8.180630e-04
7.921368e-04
7.657748e-04
7.389828e-04
7.117677e-04
6.841372e-04
6.561005e-04
6.276676e-04
5.988497e-04
5.696591e-04
5.401094e-04
5.102149e-04
4.799913e-04
4.494551e-04
4.186235e-04
3.875149e-04
3.561481e-04
3.245429e-04
2.927193e-04
2.606980e-04
2.285002e-04
1.961472e-04
1.636608e-04
1.310629e-04
9.837555e-05
6.562109e-05
3.282196e-05
1.262101e-09
2.136714e-03
1.417020e-03
1.306728e-03
1.300638e-03
1.312070e-03
1.326159e-03
1.340361e-03
1.354248e-03
1.367754e-03
1.380874e-03
1.393614e-03
1.405981e-03
1.417983e-03
1.429626e-03
1.440917e-03
1.451862e-03
1.462465e-03
1.472733e-03
1.482669e-03
1.492277e-03
1.501563e-03
1.510528e-03
1.519177e-03
1.527512e-03
1.535537e-03
1.543253e-03
1.550664e-03
1.557772e-03
1.564578e-03
1.571085e-03
1.577295e-03
1.583209e-03
1.588829e-03
1.594156e-03
1.599192e-03
1.603939e-03
1.608397e-03
1.612567e-03
1.616452e-03
1.620050e-03
1.623364e-03
1.626394e-03
1.629141e-03
1.631605e-03
1.633787e-03
1.635687e-03
1.637305e-03
1.638642e-03
1.639697e-03
1.640471e-03
1.640963e-03
1.641173e-03
1.641101e-03
1.640747e-03
1.640110e-03
1.639189e-03
1.637983e-03
1.636493e-03
1.634716e-03
1.632653e-03
1.630301e-03
1.627660e-03
1.624728e-03
1.621505e-03
1.617988e-03
1.614176e-03
1.610067e-03
1.605660e-03
1.600952e-03
1.595942e-03
1.590628e-03
1.585007e-03
1.579078e-03
1.572837e-03
1.566283e-03
1.559412e-03
1.552223e-03
1.544713e-03
1.536878e-03
1.528716e-03
1.520224e-03
1.511399e-03
1.502237e-03
1.492736e-03
1.482891e-03
1.472700e-03
1.462160e-03
1.451266e-03
1.440014e-03
1.428402e-03
1.416425e-03
1.404080e-03
1.391363e-03
1.378269e-03
1.364795e-03
1.350936e-03
1.336690e-03
1.322051e-03
1.307015e-03
1.291579e-03
1.275738e-03
1.259489e-03
1.242827e-03
1.225749e-03
1.208250e-03
1.190327e-03
1.171976e-03
1.153193e-03
1.133976e-03
1.114321e-03
1.094225e-03
1.073685e-03
1.052699e-03
1.031265e-03
1.009381e-03
9.870457e-04
9.642583e-04
9.410185e-04
9.173264e-04
8.931829e-04
8.685895e-04
8.435485e-04
8.180630e-04
7.921368e-04
7.657748e-04
7.389828e-04
7.117677e-04
6.841372e-04
6.561005e-04
6.276676e-04
5.988497e-04
5.696591e-04
5.401094e-04
5.102149e-04
4.799913e-04
4.494551e-04
4.186235e-04
3.875149e-04
3.561481e-04
3.245429e-04
2.927193e-04
2.606980e-04
2.285002e-04
1.961472e-04
1.636608e-04
1.310629e-04
9.837555e-05
6.562109e-05
3.282196e-05
1.262101e-09
2.136714e-03
1.417020e-03
1.306728e-03
1.300638e-03
1.312070e-03
1.326159e-03
1.340361e-03
1.354248e-03
1.367754e-03
1.380874e-03
1.393614e-03
1.405981e-03
1.417983e-03
1.429626e-03
1.440917e-03
1.451862e-03
1.462465e-03
1.472733e-03
1.482669e-03
1.492277e-03
1.501563e-03
1.510528e-03
1.519177e-03
1.527512e-03
1.535537e-03
1.543253e-03
1.550664e-03
1.557772e-03
1.564578e-03
1.571085e-03
1.577295e-03
1.583209e-03
1.588829e-03
1.594156e-03
1.599192e-03
1.603939e-03
1.608397e-03
1.612567e-03
1.616452e-03
1.620050e-03
1.623364e-03
1.626394e-03
1.629141e-03
1.631605e-03
1.633787e-03
1.635687e-03
1.637305e-03
1.638642e-03
1.639697e-03
1.640471e-03
1.640963e-03
1.641173e-03
1.641101e-03
1.640747e-03
1.640110e-03
1.639189e-03
1.637983e-03
1.636493e-03
1.634716e-03
1.632653e-03
1.630301e-03
1.627660e-03
1.624728e-03
1.621505e-03
1.617988e-03
1.614176e-03
1.610067e-03
1.605660e-03
1.600952e-03
1.595942e-03
1.590628e-03
1.585007e-03
1.579078e-03
1.572837e-03
1.566283e-03
1.559412e-03
1.552223e-03
1.544713e-03
1.536878e-03
1.528716e-03
1.520224e-03
1.511399e-03
1.502237e-03
1.492736e-03
1.482891e-03
1.472700e-03
1.462160e-03
1.451266e-03
1.440014e-03
1.428402e-03
1.416425e-03
1.404080e-03
1.391363e-03
1.378269e-03
1.364795e-03
1.350936e-03
1.336690e-03
1.322051e-03
1.307015e-03
1.291579e-03
1.275738e-03
1.259489e-03
1.242827e-03
1.225749e-03
1.208250e-03
1.190327e-03
1.171976e-03
1.153193e-03
1.133976e-03
1.114321e-03
1.094225e-03
1.073685e-03
1.052699e-03
1.031265e-03
1.009381e-03
9.870457e-04
9.642583e-04
9.410185e-04
9.173264e-04
8.931829e-04
8.685895e-04
8.435485e-04
8.180630e-04
7.921368e-04
7.657748e-04
7.389828e-04
7.117677e-04
6.841372e-04
6.561005e-04
6.276676e-04
5.988497e-04
5.696591e-04
5.401094e-04
5.102149e-04
4.799913e-04
4.494551e-04
4.186235e-04
3.875149e-04
3.561481e-04
3.245429e-04
2.927193e-04
2.606980e-04
2.285002e-04
1.961472e-04
1.636608e-04
1.310629e-04
9.837555e-05
6.562109e-05
3.282196e-05
1.262101e-09
