# vtk DataFile Version 3.0
Monodomain FEM
ASCII
DATASET POLYDATA
POINTS 601 float
0.000000e+00 0.000000e+00 0.000000e+00
6.667000e-03 0.000000e+00 0.000000e+00
1.333300e-02 0.000000e+00 0.000000e+00
2.000000e-02 0.000000e+00 0.000000e+00
2.666700e-02 0.000000e+00 0.000000e+00
3.333300e-02 0.000000e+00 0.000000e+00
4.000000e-02 0.000000e+00 0.000000e+00
4.666700e-02 0.000000e+00 0.000000e+00
5.333300e-02 0.000000e+00 0.000000e+00
6.000000e-02 0.000000e+00 0.000000e+00
6.666700e-02 0.000000e+00 0.000000e+00
7.333300e-02 0.000000e+00 0.000000e+00
8.000000e-02 0.000000e+00 0.000000e+00
8.666700e-02 0.000000e+00 0.000000e+00
9.333300e-02 0.000000e+00 0.000000e+00
1.000000e-01 0.000000e+00 0.000000e+00
1.066670e-01 0.000000e+00 0.000000e+00
1.133330e-01 0.000000e+00 0.000000e+00
1.200000e-01 0.000000e+00 0.000000e+00
1.266670e-01 0.000000e+00 0.000000e+00
1.333330e-01 0.000000e+00 0.000000e+00
1.400000e-01 0.000000e+00 0.000000e+00
1.466670e-01 0.000000e+00 0.000000e+00
1.533330e-01 0.000000e+00 0.000000e+00
1.600000e-01 0.000000e+00 0.000000e+00
1.666670e-01 0.000000e+00 0.000000e+00
1.733330e-01 0.000000e+00 0.000000e+00
1.800000e-01 0.000000e+00 0.000000e+00
1.866670e-01 0.000000e+00 0.000000e+00
1.933330e-01 0.000000e+00 0.000000e+00
2.000000e-01 0.000000e+00 0.000000e+00
2.066670e-01 0.000000e+00 0.000000e+00
2.133330e-01 0.000000e+00 0.000000e+00
2.200000e-01 0.000000e+00 0.000000e+00
2.266670e-01 0.000000e+00 0.000000e+00
2.333330e-01 0.000000e+00 0.000000e+00
2.400000e-01 0.000000e+00 0.000000e+00
2.466670e-01 0.000000e+00 0.000000e+00
2.533330e-01 0.000000e+00 0.000000e+00
2.600000e-01 0.000000e+00 0.000000e+00
2.666670e-01 0.000000e+00 0.000000e+00
2.733330e-01 0.000000e+00 0.000000e+00
2.800000e-01 0.000000e+00 0.000000e+00
2.866670e-01 0.000000e+00 0.000000e+00
2.933330e-01 0.000000e+00 0.000000e+00
3.000000e-01 0.000000e+00 0.000000e+00
3.066670e-01 0.000000e+00 0.000000e+00
3.133330e-01 0.000000e+00 0.000000e+00
3.200000e-01 0.000000e+00 0.000000e+00
3.266670e-01 0.000000e+00 0.000000e+00
3.333330e-01 0.000000e+00 0.000000e+00
3.400000e-01 0.000000e+00 0.000000e+00
3.466670e-01 0.000000e+00 0.000000e+00
3.533330e-01 0.000000e+00 0.000000e+00
3.600000e-01 0.000000e+00 0.000000e+00
3.666670e-01 0.000000e+00 0.000000e+00
3.733330e-01 0.000000e+00 0.000000e+00
3.800000e-01 0.000000e+00 0.000000e+00
3.866670e-01 0.000000e+00 0.000000e+00
3.933330e-01 0.000000e+00 0.000000e+00
4.000000e-01 0.000000e+00 0.000000e+00
4.066670e-01 0.000000e+00 0.000000e+00
4.133330e-01 0.000000e+00 0.000000e+00
4.200000e-01 0.000000e+00 0.000000e+00
4.266670e-01 0.000000e+00 0.000000e+00
4.333330e-01 0.000000e+00 0.000000e+00
4.400000e-01 0.000000e+00 0.000000e+00
4.466670e-01 0.000000e+00 0.000000e+00
4.533330e-01 0.000000e+00 0.000000e+00
4.600000e-01 0.000000e+00 0.000000e+00
4.666670e-01 0.000000e+00 0.000000e+00
4.733330e-01 0.000000e+00 0.000000e+00
4.800000e-01 0.000000e+00 0.000000e+00
4.866670e-01 0.000000e+00 0.000000e+00
4.933330e-01 0.000000e+00 0.000000e+00
5.000000e-01 0.000000e+00 0.000000e+00
5.066670e-01 0.000000e+00 0.000000e+00
5.133330e-01 0.000000e+00 0.000000e+00
5.200000e-01 0.000000e+00 0.000000e+00
5.266670e-01 0.000000e+00 0.000000e+00
5.333330e-01 0.000000e+00 0.000000e+00
5.400000e-01 0.000000e+00 0.000000e+00
5.466670e-01 0.000000e+00 0.000000e+00
5.533330e-01 0.000000e+00 0.000000e+00
5.600000e-01 0.000000e+00 0.000000e+00
5.666670e-01 0.000000e+00 0.000000e+00
5.733330e-01 0.000000e+00 0.000000e+00
5.800000e-01 0.000000e+00 0.000000e+00
5.866670e-01 0.000000e+00 0.000000e+00
5.933330e-01 0.000000e+00 0.000000e+00
6.000000e-01 0.000000e+00 0.000000e+00
6.066670e-01 0.000000e+00 0.000000e+00
6.133330e-01 0.000000e+00 0.000000e+00
6.200000e-01 0.000000e+00 0.000000e+00
6.266670e-01 0.000000e+00 0.000000e+00
6.333330e-01 0.000000e+00 0.000000e+00
6.400000e-01 0.000000e+00 0.000000e+00
6.466670e-01 0.000000e+00 0.000000e+00
6.533330e-01 0.000000e+00 0.000000e+00
6.600000e-01 0.000000e+00 0.000000e+00
6.666670e-01 0.000000e+00 0.000000e+00
6.733330e-01 0.000000e+00 0.000000e+00
6.800000e-01 0.000000e+00 0.000000e+00
6.866670e-01 0.000000e+00 0.000000e+00
6.933330e-01 0.000000e+00 0.000000e+00
7.000000e-01 0.000000e+00 0.000000e+00
7.066670e-01 0.000000e+00 0.000000e+00
7.133330e-01 0.000000e+00 0.000000e+00
7.200000e-01 0.000000e+00 0.000000e+00
7.266670e-01 0.000000e+00 0.000000e+00
7.333330e-01 0.000000e+00 0.000000e+00
7.400000e-01 0.000000e+00 0.000000e+00
7.466670e-01 0.000000e+00 0.000000e+00
7.533330e-01 0.000000e+00 0.000000e+00
7.600000e-01 0.000000e+00 0.000000e+00
7.666670e-01 0.000000e+00 0.000000e+00
7.733330e-01 0.000000e+00 0.000000e+00
7.800000e-01 0.000000e+00 0.000000e+00
7.866670e-01 0.000000e+00 0.000000e+00
7.933330e-01 0.000000e+00 0.000000e+00
8.000000e-01 0.000000e+00 0.000000e+00
8.066670e-01 0.000000e+00 0.000000e+00
8.133330e-01 0.000000e+00 0.000000e+00
8.200000e-01 0.000000e+00 0.000000e+00
8.266670e-01 0.000000e+00 0.000000e+00
8.333330e-01 0.000000e+00 0.000000e+00
8.400000e-01 0.000000e+00 0.000000e+00
8.466670e-01 0.000000e+00 0.000000e+00
8.533330e-01 0.000000e+00 0.000000e+00
8.600000e-01 0.000000e+00 0.000000e+00
8.666670e-01 0.000000e+00 0.000000e+00
8.733330e-01 0.000000e+00 0.000000e+00
8.800000e-01 0.000000e+00 0.000000e+00
8.866670e-01 0.000000e+00 0.000000e+00
8.933330e-01 0.000000e+00 0.000000e+00
9.000000e-01 0.000000e+00 0.000000e+00
9.066670e-01 0.000000e+00 0.000000e+00
9.133330e-01 0.000000e+00 0.000000e+00
9.200000e-01 0.000000e+00 0.000000e+00
9.266670e-01 0.000000e+00 0.000000e+00
9.333330e-01 0.000000e+00 0.000000e+00
9.400000e-01 0.000000e+00 0.000000e+00
9.466670e-01 0.000000e+00 0.000000e+00
9.533330e-01 0.000000e+00 0.000000e+00
9.600000e-01 0.000000e+00 0.000000e+00
9.666670e-01 0.000000e+00 0.000000e+00
9.733330e-01 0.000000e+00 0.000000e+00
9.800000e-01 0.000000e+00 0.000000e+00
9.866670e-01 0.000000e+00 0.000000e+00
9.933330e-01 0.000000e+00 0.000000e+00
1.000000e+00 0.000000e+00 0.000000e+00
1.006667e+00 0.000000e+00 0.000000e+00
1.013333e+00 0.000000e+00 0.000000e+00
1.020000e+00 0.000000e+00 0.000000e+00
1.026667e+00 0.000000e+00 0.000000e+00
1.033333e+00 0.000000e+00 0.000000e+00
1.040000e+00 0.000000e+00 0.000000e+00
1.046667e+00 0.000000e+00 0.000000e+00
1.053333e+00 0.000000e+00 0.000000e+00
1.060000e+00 0.000000e+00 0.000000e+00
1.066667e+00 0.000000e+00 0.000000e+00
1.073333e+00 0.000000e+00 0.000000e+00
1.080000e+00 0.000000e+00 0.000000e+00
1.086667e+00 0.000000e+00 0.000000e+00
1.093333e+00 0.000000e+00 0.000000e+00
1.100000e+00 0.000000e+00 0.000000e+00
1.106667e+00 0.000000e+00 0.000000e+00
1.113333e+00 0.000000e+00 0.000000e+00
1.120000e+00 0.000000e+00 0.000000e+00
1.126667e+00 0.000000e+00 0.000000e+00
1.133333e+00 0.000000e+00 0.000000e+00
1.140000e+00 0.000000e+00 0.000000e+00
1.146667e+00 0.000000e+00 0.000000e+00
1.153333e+00 0.000000e+00 0.000000e+00
1.160000e+00 0.000000e+00 0.000000e+00
1.166667e+00 0.000000e+00 0.000000e+00
1.173333e+00 0.000000e+00 0.000000e+00
1.180000e+00 0.000000e+00 0.000000e+00
1.186667e+00 0.000000e+00 0.000000e+00
1.193333e+00 0.000000e+00 0.000000e+00
1.200000e+00 0.000000e+00 0.000000e+00
1.206667e+00 0.000000e+00 0.000000e+00
1.213333e+00 0.000000e+00 0.000000e+00
1.220000e+00 0.000000e+00 0.000000e+00
1.226667e+00 0.000000e+00 0.000000e+00
1.233333e+00 0.000000e+00 0.000000e+00
1.240000e+00 0.000000e+00 0.000000e+00
1.246667e+00 0.000000e+00 0.000000e+00
1.253333e+00 0.000000e+00 0.000000e+00
1.260000e+00 0.000000e+00 0.000000e+00
1.266667e+00 0.000000e+00 0.000000e+00
1.273333e+00 0.000000e+00 0.000000e+00
1.280000e+00 0.000000e+00 0.000000e+00
1.286667e+00 0.000000e+00 0.000000e+00
1.293333e+00 0.000000e+00 0.000000e+00
1.300000e+00 0.000000e+00 0.000000e+00
1.306667e+00 0.000000e+00 0.000000e+00
1.313333e+00 0.000000e+00 0.000000e+00
1.320000e+00 0.000000e+00 0.000000e+00
1.326667e+00 0.000000e+00 0.000000e+00
1.333333e+00 0.000000e+00 0.000000e+00
1.340000e+00 0.000000e+00 0.000000e+00
1.346667e+00 0.000000e+00 0.000000e+00
1.353333e+00 0.000000e+00 0.000000e+00
1.360000e+00 0.000000e+00 0.000000e+00
1.366667e+00 0.000000e+00 0.000000e+00
1.373333e+00 0.000000e+00 0.000000e+00
1.380000e+00 0.000000e+00 0.000000e+00
1.386667e+00 0.000000e+00 0.000000e+00
1.393333e+00 0.000000e+00 0.000000e+00
1.400000e+00 0.000000e+00 0.000000e+00
1.406667e+00 0.000000e+00 0.000000e+00
1.413333e+00 0.000000e+00 0.000000e+00
1.420000e+00 0.000000e+00 0.000000e+00
1.426667e+00 0.000000e+00 0.000000e+00
1.433333e+00 0.000000e+00 0.000000e+00
1.440000e+00 0.000000e+00 0.000000e+00
1.446667e+00 0.000000e+00 0.000000e+00
1.453333e+00 0.000000e+00 0.000000e+00
1.460000e+00 0.000000e+00 0.000000e+00
1.466667e+00 0.000000e+00 0.000000e+00
1.473333e+00 0.000000e+00 0.000000e+00
1.480000e+00 0.000000e+00 0.000000e+00
1.486667e+00 0.000000e+00 0.000000e+00
1.493333e+00 0.000000e+00 0.000000e+00
1.500000e+00 0.000000e+00 0.000000e+00
1.506667e+00 0.000000e+00 0.000000e+00
1.513333e+00 0.000000e+00 0.000000e+00
1.520000e+00 0.000000e+00 0.000000e+00
1.526667e+00 0.000000e+00 0.000000e+00
1.533333e+00 0.000000e+00 0.000000e+00
1.540000e+00 0.000000e+00 0.000000e+00
1.546667e+00 0.000000e+00 0.000000e+00
1.553333e+00 0.000000e+00 0.000000e+00
1.560000e+00 0.000000e+00 0.000000e+00
1.566667e+00 0.000000e+00 0.000000e+00
1.573333e+00 0.000000e+00 0.000000e+00
1.580000e+00 0.000000e+00 0.000000e+00
1.586667e+00 0.000000e+00 0.000000e+00
1.593333e+00 0.000000e+00 0.000000e+00
1.600000e+00 0.000000e+00 0.000000e+00
1.606667e+00 0.000000e+00 0.000000e+00
1.613333e+00 0.000000e+00 0.000000e+00
1.620000e+00 0.000000e+00 0.000000e+00
1.626667e+00 0.000000e+00 0.000000e+00
1.633333e+00 0.000000e+00 0.000000e+00
1.640000e+00 0.000000e+00 0.000000e+00
1.646667e+00 0.000000e+00 0.000000e+00
1.653333e+00 0.000000e+00 0.000000e+00
1.660000e+00 0.000000e+00 0.000000e+00
1.666667e+00 0.000000e+00 0.000000e+00
1.673333e+00 0.000000e+00 0.000000e+00
1.680000e+00 0.000000e+00 0.000000e+00
1.686667e+00 0.000000e+00 0.000000e+00
[...]
POINT_DATA 601
SCALARS vm float 1
LOOKUP_TABLE default
6.225036e-09
1.790080e-04
3.577949e-04
5.361447e-04
7.138400e-04
8.906675e-04
1.064351e-03
1.234990e-03
1.404863e-03
1.573981e-03
1.742350e-03
1.909975e-03
2.076862e-03
2.243016e-03
2.408445e-03
2.573154e-03
2.737150e-03
2.900439e-03
3.063029e-03
3.224926e-03
3.386136e-03
3.546665e-03
3.706519e-03
3.865704e-03
4.024225e-03
4.182088e-03
4.339297e-03
4.495857e-03
4.651772e-03
4.807047e-03
4.961685e-03
5.115690e-03
5.269066e-03
5.421815e-03
5.573940e-03
5.725445e-03
5.876332e-03
6.026602e-03
6.176259e-03
6.325303e-03
6.473737e-03
6.621562e-03
6.768779e-03
6.915389e-03
7.061393e-03
7.206792e-03
7.351586e-03
7.495776e-03
7.639361e-03
7.782342e-03
7.924718e-03
8.066490e-03
8.207656e-03
8.348215e-03
8.488167e-03
8.627510e-03
8.766244e-03
8.904366e-03
9.041875e-03
9.178770e-03
9.315048e-03
9.450706e-03
9.585744e-03
9.720157e-03
9.853945e-03
9.987102e-03
1.011963e-02
1.025152e-02
1.038277e-02
1.051338e-02
1.064334e-02
1.077265e-02
1.090131e-02
1.102932e-02
1.115665e-02
1.128333e-02
1.140933e-02
1.153466e-02
1.165930e-02
1.178326e-02
1.190653e-02
1.202910e-02
1.215097e-02
1.227213e-02
1.239258e-02
1.251231e-02
1.263132e-02
1.274959e-02
1.286713e-02
1.298392e-02
1.309996e-02
1.321524e-02
1.332976e-02
1.344351e-02
1.355647e-02
1.366866e-02
1.378004e-02
1.389063e-02
1.400040e-02
1.410936e-02
1.421750e-02
1.432480e-02
1.443125e-02
1.453686e-02
1.464160e-02
1.474548e-02
1.484848e-02
1.495059e-02
1.505180e-02
1.515210e-02
1.525149e-02
1.534994e-02
1.544746e-02
1.554403e-02
1.563963e-02
1.573426e-02
1.582791e-02
1.592056e-02
1.601219e-02
1.610280e-02
1.619237e-02
1.628089e-02
1.636834e-02
1.645470e-02
1.653996e-02
1.662410e-02
1.670710e-02
1.678894e-02
1.686960e-02
1.694906e-02
1.702729e-02
1.710427e-02
1.717997e-02
1.725435e-02
1.732740e-02
1.739907e-02
1.746931e-02
1.753810e-02
1.760538e-02
1.767109e-02
1.773517e-02
1.779756e-02
1.785819e-02
1.791699e-02
1.797404e-02
1.803035e-02
1.809227e-02
1.819761e-02
1.856735e-02
2.049035e-02
3.147887e-02
1.049296e-02
6.923354e-03
6.341315e-03
6.271059e-03
6.287772e-03
6.318563e-03
6.350926e-03
6.382714e-03
6.413560e-03
6.443400e-03
6.472224e-03
6.500029e-03
6.526814e-03
6.552577e-03
6.577317e-03
6.601032e-03
6.623719e-03
6.645376e-03
6.666000e-03
6.685588e-03
6.704135e-03
6.721640e-03
6.738097e-03
6.753504e-03
6.767856e-03
6.781149e-03
6.793380e-03
6.804544e-03
6.814637e-03
6.823656e-03
6.831596e-03
6.838453e-03
6.844223e-03
6.848904e-03
6.852490e-03
6.854978e-03
6.856364e-03
6.856646e-03
6.855818e-03
6.853879e-03
6.850824e-03
6.846651e-03
6.841356e-03
6.834936e-03
6.827389e-03
6.818710e-03
6.808899e-03
6.797952e-03
6.785866e-03
6.772639e-03
6.758269e-03
6.742754e-03
6.726091e-03
6.708279e-03
6.689315e-03
6.669199e-03
6.647928e-03
6.625501e-03
6.601917e-03
6.577175e-03
6.551273e-03
6.524210e-03
6.495986e-03
6.466601e-03
6.436053e-03
6.404342e-03
6.371468e-03
6.337431e-03
6.302231e-03
6.265868e-03
6.228343e-03
6.189656e-03
6.149808e-03
6.108799e-03
6.066631e-03
6.023304e-03
5.978820e-03
5.933180e-03
5.886387e-03
5.838441e-03
5.789344e-03
5.739099e-03
5.687708e-03
5.635173e-03
5.581497e-03
5.526682e-03
5.470732e-03
5.413649e-03
5.355437e-03
5.296098e-03
5.235638e-03
5.174059e-03
5.111366e-03
5.047562e-03
4.982652e-03
4.916641e-03
4.849533e-03
4.781333e-03
4.712047e-03
4.641680e-03
4.570237e-03
4.497725e-03
4.424150e-03
4.349518e-03
4.273835e-03
4.197110e-03
4.119349e-03
4.040560e-03
3.960751e-03
3.879931e-03
3.798108e-03
3.715292e-03
3.631492e-03
3.546719e-03
3.460984e-03
3.374297e-03
3.286672e-03
3.198119e-03
3.108654e-03
3.018290e-03
2.927042e-03
2.834926e-03
2.741958e-03
2.648157e-03
2.553540e-03
2.458128e-03
2.361942e-03
2.265003e-03
2.167335e-03
2.068962e-03
1.969909e-03
1.870204e-03
1.769874e-03
1.668948e-03
1.567455e-03
1.465428e-03
1.362899e-03
1.259898e-03
1.156462e-03
1.052623e-03
9.484170e-04
8.438790e-04
7.390452e-04
6.339516e-04
5.286349e-04
4.231320e-04
3.174798e-04
2.117156e-04
1.058771e-04
4.109733e-09
1.049296e-02
6.923354e-03
6.341315e-03
6.271059e-03
6.287772e-03
6.318563e-03
6.350926e-03
6.382714e-03
6.413560e-03
6.443400e-03
6.472224e-03
6.500029e-03
6.526814e-03
6.552577e-03
6.577317e-03
6.601032e-03
6.623719e-03
6.645376e-03
6.666000e-03
6.685588e-03
6.704135e-03
6.721640e-03
6.738097e-03
6.753504e-03
6.767856e-03
6.781149e-03
6.793380e-03
6.804544e-03
6.814637e-03
6.823656e-03
6.831596e-03
6.838453e-03
6.844223e-03
6.848904e-03
6.852490e-03
6.854978e-03
6.856364e-03
6.856646e-03
6.855818e-03
6.853879e-03
6.850824e-03
6.846651e-03
6.841356e-03
6.834936e-03
6.827389e-03
6.818710e-03
6.808899e-03
6.797952e-03
6.785866e-03
6.772639e-03
6.758269e-03
6.742754e-03
6.726091e-03
6.708279e-03
6.689315e-03
6.669199e-03
6.647928e-03
6.625501e-03
6.601917e-03
6.577175e-03
6.551273e-03
6.524210e-03
6.495986e-03
6.466601e-03
6.436053e-03
6.404342e-03
6.371468e-03
6.337431e-03
6.302231e-03
6.265868e-03
6.228343e-03
6.189656e-03
6.149808e-03
6.108799e-03
6.066631e-03
6.023304e-03
5.978820e-03
5.933180e-03
5.886387e-03
5.838441e-03
5.789344e-03
5.739099e-03
5.687708e-03
5.635173e-03
5.581497e-03
5.526682e-03
5.470732e-03
5.413649e-03
5.355437e-03
5.296098e-03
5.235638e-03
5.174059e-03
5.111366e-03
5.047562e-03
4.982652e-03
4.916641e-03
4.849533e-03
4.781333e-03
4.712047e-03
4.641680e-03
4.570237e-03
4.497725e-03
4.424150e-03
4.349518e-03
4.273835e-03
4.197110e-03
4.119349e-03
4.040560e-03
3.960751e-03
3.879931e-03
3.798108e-03
3.715292e-03
3.631492e-03
3.546719e-03
3.460984e-03
3.374297e-03
3.286672e-03
3.198119e-03
3.108654e-03
3.018290e-03
2.927042e-03
2.834926e-03
2.741958e-03
2.648157e-03
2.553540e-03
2.458128e-03
2.361942e-03
2.265003e-03
2.167335e-03
2.068962e-03
1.969909e-03
1.870204e-03
1.769874e-03
1.668948e-03
1.567455e-03
1.465428e-03
1.362899e-03
1.259898e-03
1.156462e-03
1.052623e-03
9.484170e-04
8.438790e-04
7.390452e-04
6.339516e-04
5.286349e-04
4.231320e-04
3.174798e-04
2.117156e-04
1.058771e-04
4.109733e-09
1.049296e-02
6.923354e-03
6.341315e-03
6.271059e-03
6.287772e-03
6.318563e-03
6.350926e-03
6.382714e-03
6.413560e-03
6.443400e-03
6.472224e-03
6.500029e-03
6.526814e-03
6.552577e-03
6.577317e-03
6.601032e-03
6.623719e-03
6.645376e-03
6.666000e-03
6.685588e-03
6.704135e-03
6.721640e-03
6.738097e-03
6.753504e-03
6.767856e-03
6.781149e-03
6.793380e-03
6.804544e-03
6.814637e-03
6.823656e-03
6.831596e-03
6.838453e-03
6.844223e-03
6.848904e-03
6.852490e-03
6.854978e-03
6.856364e-03
6.856646e-03
6.855818e-03
6.853879e-03
6.850824e-03
6.846651e-03
6.841356e-03
6.834936e-03
6.827389e-03
6.818710e-03
6.808899e-03
6.797952e-03
6.785866e-03
6.772639e-03
6.758269e-03
6.742754e-03
6.726091e-03
6.708279e-03
6.689315e-03
6.669199e-03
6.647928e-03
6.625501e-03
6.601917e-03
6.577175e-03
6.551273e-03
6.524210e-03
6.495986e-03
6.466601e-03
6.436053e-03
6.404342e-03
6.371468e-03
6.337431e-03
6.302231e-03
6.265868e-03
6.228343e-03
6.189656e-03
6.149808e-03
6.108799e-03
6.066631e-03
6.023304e-03
5.978820e-03
5.933180e-03
5.886387e-03
5.838441e-03
5.789344e-03
5.739099e-03
5.687708e-03
5.635173e-03
5.581497e-03
5.526682e-03
5.470732e-03
5.413649e-03
5.355437e-03
5.296098e-03
5.235638e-03
5.174059e-03
5.111366e-03
5.047562e-03
4.982652e-03
4.916641e-03
4.849533e-03
4.781333e-03
4.712047e-03
4.641680e-03
4.570237e-03
4.497725e-03
4.424150e-03
4.349518e-03
4.273835e-03
4.197110e-03
4.119349e-03
4.040560e-03
3.960751e-03
3.879931e-03
3.798108e-03
3.715292e-03
3.631492e-03
3.546719e-03
3.460984e-03
3.374297e-03
3.286672e-03
3.198119e-03
3.108654e-03
3.018290e-03
2.927042e-03
2.834926e-03
2.741958e-03
2.648157e-03
2.553540e-03
2.458128e-03
2.361942e-03
2.265003e-03
2.167335e-03
2.068962e-03
1.969909e-03
1.870204e-03
1.769874e-03
1.668948e-03
1.567455e-03
1.465428e-03
1.362899e-03
1.259898e-03
1.156462e-03
1.052623e-03
9.484170e-04
8.438790e-04
7.390452e-04
6.339516e-04
5.286349e-04
4.231320e-04
3.174798e-04
2.117156e-04
1.058771e-04
4.109733e-09
