# vtk DataFile Version 3.0
Monodomain FEM
ASCII
DATASET POLYDATA
POINTS 601 float
0.000000e+00 0.000000e+00 0.000000e+00
6.667000e-03 0.000000e+00 0.000000e+00
1.333300e-02 0.000000e+00 0.000000e+00
2.000000e-02 0.000000e+00 0.000000e+00
2.666700e-02 0.000000e+00 0.000000e+00
3.333300e-02 0.000000e+00 0.000000e+00
4.000000e-02 0.000000e+00 0.000000e+00
4.666700e-02 0.000000e+00 0.000000e+00
5.333300e-02 0.000000e+00 0.000000e+00
6.000000e-02 0.000000e+00 0.000000e+00
6.666700e-02 0.000000e+00 0.000000e+00
7.333300e-02 0.000000e+00 0.000000e+00
8.000000e-02 0.000000e+00 0.000000e+00
8.666700e-02 0.000000e+00 0.000000e+00
9.333300e-02 0.000000e+00 0.000000e+00
1.000000e-01 0.000000e+00 0.000000e+00
1.066670e-01 0.000000e+00 0.000000e+00
1.133330e-01 0.000000e+00 0.000000e+00
1.200000e-01 0.000000e+00 0.000000e+00
1.266670e-01 0.000000e+00 0.000000e+00
1.333330e-01 0.000000e+00 0.000000e+00
1.400000e-01 0.000000e+00 0.000000e+00
1.466670e-01 0.000000e+00 0.000000e+00
1.533330e-01 0.000000e+00 0.000000e+00
1.600000e-01 0.000000e+00 0.000000e+00
1.666670e-01 0.000000e+00 0.000000e+00
1.733330e-01 0.000000e+00 0.000000e+00
1.800000e-01 0.000000e+00 0.000000e+00
1.866670e-01 0.000000e+00 0.000000e+00
1.933330e-01 0.000000e+00 0.000000e+00
2.000000e-01 0.000000e+00 0.000000e+00
2.066670e-01 0.000000e+00 0.000000e+00
2.133330e-01 0.000000e+00 0.000000e+00
2.200000e-01 0.000000e+00 0.000000e+00
2.266670e-01 0.000000e+00 0.000000e+00
2.333330e-01 0.000000e+00 0.000000e+00
2.400000e-01 0.000000e+00 0.000000e+00
2.466670e-01 0.000000e+00 0.000000e+00
2.533330e-01 0.000000e+00 0.000000e+00
2.600000e-01 0.000000e+00 0.000000e+00
2.666670e-01 0.000000e+00 0.000000e+00
2.733330e-01 0.000000e+00 0.000000e+00
2.800000e-01 0.000000e+00 0.000000e+00
2.866670e-01 0.000000e+00 0.000000e+00
2.933330e-01 0.000000e+00 0.000000e+00
3.000000e-01 0.000000e+00 0.000000e+00
3.066670e-01 0.000000e+00 0.000000e+00
3.133330e-01 0.000000e+00 0.000000e+00
3.200000e-01 0.000000e+00 0.000000e+00
3.266670e-01 0.000000e+00 0.000000e+00
3.333330e-01 0.000000e+00 0.000000e+00
3.400000e-01 0.000000e+00 0.000000e+00
3.466670e-01 0.000000e+00 0.000000e+00
3.533330e-01 0.000000e+00 0.000000e+00
3.600000e-01 0.000000e+00 0.000000e+00
3.666670e-01 0.000000e+00 0.000000e+00
3.733330e-01 0.000000e+00 0.000000e+00
3.800000e-01 0.000000e+00 0.000000e+00
3.866670e-01 0.000000e+00 0.000000e+00
3.933330e-01 0.000000e+00 0.000000e+00
4.000000e-01 0.000000e+00 0.000000e+00
4.066670e-01 0.000000e+00 0.000000e+00
4.133330e-01 0.000000e+00 0.000000e+00
4.200000e-01 0.000000e+00 0.000000e+00
4.266670e-01 0.000000e+00 0.000000e+00
4.333330e-01 0.000000e+00 0.000000e+00
4.400000e-01 0.000000e+00 0.000000e+00
4.466670e-01 0.000000e+00 0.000000e+00
4.533330e-01 0.000000e+00 0.000000e+00
4.600000e-01 0.000000e+00 0.000000e+00
4.666670e-01 0.000000e+00 0.000000e+00
4.733330e-01 0.000000e+00 0.000000e+00
4.800000e-01 0.000000e+00 0.000000e+00
4.866670e-01 0.000000e+00 0.000000e+00
4.933330e-01 0.000000e+00 0.000000e+00
5.000000e-01 0.000000e+00 0.000000e+00
5.066670e-01 0.000000e+00 0.000000e+00
5.133330e-01 0.000000e+00 0.000000e+00
5.200000e-01 0.000000e+00 0.000000e+00
5.266670e-01 0.000000e+00 0.000000e+00
5.333330e-01 0.000000e+00 0.000000e+00
5.400000e-01 0.000000e+00 0.000000e+00
5.466670e-01 0.000000e+00 0.000000e+00
5.533330e-01 0.000000e+00 0.000000e+00
5.600000e-01 0.000000e+00 0.000000e+00
5.666670e-01 0.000000e+00 0.000000e+00
5.733330e-01 0.000000e+00 0.000000e+00
5.800000e-01 0.000000e+00 0.000000e+00
5.866670e-01 0.000000e+00 0.000000e+00
5.933330e-01 0.000000e+00 0.000000e+00
6.000000e-01 0.000000e+00 0.000000e+00
6.066670e-01 0.000000e+00 0.000000e+00
6.133330e-01 0.000000e+00 0.000000e+00
6.200000e-01 0.000000e+00 0.000000e+00
6.266670e-01 0.000000e+00 0.000000e+00
6.333330e-01 0.000000e+00 0.000000e+00
6.400000e-01 0.000000e+00 0.000000e+00
6.466670e-01 0.000000e+00 0.000000e+00
6.533330e-01 0.000000e+00 0.000000e+00
6.600000e-01 0.000000e+00 0.000000e+00
6.666670e-01 0.000000e+00 0.000000e+00
6.733330e-01 0.000000e+00 0.000000e+00
6.800000e-01 0.000000e+00 0.000000e+00
6.866670e-01 0.000000e+00 0.000000e+00
6.933330e-01 0.000000e+00 0.000000e+00
7.000000e-01 0.000000e+00 0.000000e+00
7.066670e-01 0.000000e+00 0.000000e+00
7.133330e-01 0.000000e+00 0.000000e+00
7.200000e-01 0.000000e+00 0.000000e+00
7.266670e-01 0.000000e+00 0.000000e+00
7.333330e-01 0.000000e+00 0.000000e+00
7.400000e-01 0.000000e+00 0.000000e+00
7.466670e-01 0.000000e+00 0.000000e+00
7.533330e-01 0.000000e+00 0.000000e+00
7.600000e-01 0.000000e+00 0.000000e+00
7.666670e-01 0.000000e+00 0.000000e+00
7.733330e-01 0.000000e+00 0.000000e+00
7.800000e-01 0.000000e+00 0.000000e+00
7.866670e-01 0.000000e+00 0.000000e+00
7.933330e-01 0.000000e+00 0.000000e+00
8.000000e-01 0.000000e+00 0.000000e+00
8.066670e-01 0.000000e+00 0.000000e+00
8.133330e-01 0.000000e+00 0.000000e+00
8.200000e-01 0.000000e+00 0.000000e+00
8.266670e-01 0.000000e+00 0.000000e+00
8.333330e-01 0.000000e+00 0.000000e+00
8.400000e-01 0.000000e+00 0.000000e+00
8.466670e-01 0.000000e+00 0.000000e+00
8.533330e-01 0.000000e+00 0.000000e+00
8.600000e-01 0.000000e+00 0.000000e+00
8.666670e-01 0.000000e+00 0.000000e+00
8.733330e-01 0.000000e+00 0.000000e+00
8.800000e-01 0.000000e+00 0.000000e+00
8.866670e-01 0.000000e+00 0.000000e+00
8.933330e-01 0.000000e+00 0.000000e+00
9.000000e-01 0.000000e+00 0.000000e+00
9.066670e-01 0.000000e+00 0.000000e+00
9.133330e-01 0.000000e+00 0.000000e+00
9.200000e-01 0.000000e+00 0.000000e+00
9.266670e-01 0.000000e+00 0.000000e+00
9.333330e-01 0.000000e+00 0.000000e+00
9.400000e-01 0.000000e+00 0.000000e+00
9.466670e-01 0.000000e+00 0.000000e+00
9.533330e-01 0.000000e+00 0.000000e+00
9.600000e-01 0.000000e+00 0.000000e+00
9.666670e-01 0.000000e+00 0.000000e+00
9.733330e-01 0.000000e+00 0.000000e+00
9.800000e-01 0.000000e+00 0.000000e+00
9.866670e-01 0.000000e+00 0.000000e+00
9.933330e-01 0.000000e+00 0.000000e+00
1.000000e+00 0.000000e+00 0.000000e+00
1.006667e+00 0.000000e+00 0.000000e+00
1.013333e+00 0.000000e+00 0.000000e+00
1.020000e+00 0.000000e+00 0.000000e+00
1.026667e+00 0.000000e+00 0.000000e+00
1.033333e+00 0.000000e+00 0.000000e+00
1.040000e+00 0.000000e+00 0.000000e+00
1.046667e+00 0.000000e+00 0.000000e+00
1.053333e+00 0.000000e+00 0.000000e+00
1.060000e+00 0.000000e+00 0.000000e+00
1.066667e+00 0.000000e+00 0.000000e+00
1.073333e+00 0.000000e+00 0.000000e+00
1.080000e+00 0.000000e+00 0.000000e+00
1.086667e+00 0.000000e+00 0.000000e+00
1.093333e+00 0.000000e+00 0.000000e+00
1.100000e+00 0.000000e+00 0.000000e+00
1.106667e+00 0.000000e+00 0.000000e+00
1.113333e+00 0.000000e+00 0.000000e+00
1.120000e+00 0.000000e+00 0.000000e+00
1.126667e+00 0.000000e+00 0.000000e+00
1.133333e+00 0.000000e+00 0.000000e+00
1.140000e+00 0.000000e+00 0.000000e+00
1.146667e+00 0.000000e+00 0.000000e+00
1.153333e+00 0.000000e+00 0.000000e+00
1.160000e+00 0.000000e+00 0.000000e+00
1.166667e+00 0.000000e+00 0.000000e+00
1.173333e+00 0.000000e+00 0.000000e+00
1.180000e+00 0.000000e+00 0.000000e+00
1.186667e+00 0.000000e+00 0.000000e+00
1.193333e+00 0.000000e+00 0.000000e+00
1.200000e+00 0.000000e+00 0.000000e+00
1.206667e+00 0.000000e+00 0.000000e+00
1.213333e+00 0.000000e+00 0.000000e+00
1.220000e+00 0.000000e+00 0.000000e+00
1.226667e+00 0.000000e+00 0.000000e+00
1.233333e+00 0.000000e+00 0.000000e+00
1.240000e+00 0.000000e+00 0.000000e+00
1.246667e+00 0.000000e+00 0.000000e+00
1.253333e+00 0.000000e+00 0.000000e+00
1.260000e+00 0.000000e+00 0.000000e+00
1.266667e+00 0.000000e+00 0.000000e+00
1.273333e+00 0.000000e+00 0.000000e+00
1.280000e+00 0.000000e+00 0.000000e+00
1.286667e+00 0.000000e+00 0.000000e+00
1.293333e+00 0.000000e+00 0.000000e+00
1.300000e+00 0.000000e+00 0.000000e+00
1.306667e+00 0.000000e+00 0.000000e+00
1.313333e+00 0.000000e+00 0.000000e+00
1.320000e+00 0.000000e+00 0.000000e+00
1.326667e+00 0.000000e+00 0.000000e+00
1.333333e+00 0.000000e+00 0.000000e+00
1.340000e+00 0.000000e+00 0.000000e+00
1.346667e+00 0.000000e+00 0.000000e+00
1.353333e+00 0.000000e+00 0.000000e+00
1.360000e+00 0.000000e+00 0.000000e+00
1.366667e+00 0.000000e+00 0.000000e+00
1.373333e+00 0.000000e+00 0.000000e+00
1.380000e+00 0.000000e+00 0.000000e+00
1.386667e+00 0.000000e+00 0.000000e+00
1.393333e+00 0.000000e+00 0.000000e+00
1.400000e+00 0.000000e+00 0.000000e+00
1.406667e+00 0.000000e+00 0.000000e+00
1.413333e+00 0.000000e+00 0.000000e+00
1.420000e+00 0.000000e+00 0.000000e+00
1.426667e+00 0.000000e+00 0.000000e+00
1.433333e+00 0.000000e+00 0.000000e+00
1.440000e+00 0.000000e+00 0.000000e+00
1.446667e+00 0.000000e+00 0.000000e+00
1.453333e+00 0.000000e+00 0.000000e+00
1.460000e+00 0.000000e+00 0.000000e+00
1.466667e+00 0.000000e+00 0.000000e+00
1.473333e+00 0.000000e+00 0.000000e+00
1.480000e+00 0.000000e+00 0.000000e+00
1.486667e+00 0.000000e+00 0.000000e+00
1.493333e+00 0.000000e+00 0.000000e+00
1.500000e+00 0.000000e+00 0.000000e+00
1.506667e+00 0.000000e+00 0.000000e+00
1.513333e+00 0.000000e+00 0.000000e+00
1.520000e+00 0.000000e+00 0.000000e+00
1.526667e+00 0.000000e+00 0.000000e+00
1.533333e+00 0.000000e+00 0.000000e+00
1.540000e+00 0.000000e+00 0.000000e+00
1.546667e+00 0.000000e+00 0.000000e+00
1.553333e+00 0.000000e+00 0.000000e+00
1.560000e+00 0.000000e+00 0.000000e+00
1.566667e+00 0.000000e+00 0.000000e+00
1.573333e+00 0.000000e+00 0.000000e+00
1.580000e+00 0.000000e+00 0.000000e+00
1.586667e+00 0.000000e+00 0.000000e+00
1.593333e+00 0.000000e+00 0.000000e+00
1.600000e+00 0.000000e+00 0.000000e+00
1.606667e+00 0.000000e+00 0.000000e+00
1.613333e+00 0.000000e+00 0.000000e+00
1.620000e+00 0.000000e+00 0.000000e+00
1.626667e+00 0.000000e+00 0.000000e+00
1.633333e+00 0.000000e+00 0.000000e+00
1.640000e+00 0.000000e+00 0.000000e+00
1.646667e+00 0.000000e+00 0.000000e+00
1.653333e+00 0.000000e+00 0.000000e+00
1.660000e+00 0.000000e+00 0.000000e+00
1.666667e+00 0.000000e+00 0.000000e+00
1.673333e+00 0.000000e+00 0.000000e+00
1.680000e+00 0.000000e+00 0.000000e+00
1.686667e+00 0.000000e+00 0.000000e+00
[...]
POINT_DATA 601
SCALARS vm float 1
LOOKUP_TABLE default
4.840555e-11
3.129297e-06
6.242308e-06
9.322810e-06
1.235470e-05
1.532212e-05
1.805019e-05
2.054704e-05
2.298869e-05
2.537654e-05
2.771156e-05
2.999470e-05
3.222696e-05
3.440937e-05
3.654298e-05
3.862885e-05
4.066809e-05
4.266177e-05
4.461098e-05
4.651681e-05
4.838033e-05
5.020262e-05
5.198473e-05
5.372771e-05
5.543259e-05
5.710038e-05
5.873208e-05
6.032869e-05
6.189117e-05
6.342048e-05
6.491757e-05
6.638336e-05
6.781877e-05
6.922471e-05
7.060206e-05
7.195170e-05
7.327451e-05
7.457135e-05
7.584305e-05
7.709048e-05
7.831444e-05
7.951577e-05
8.069529e-05
8.185378e-05
8.299206e-05
8.411092e-05
8.521112e-05
8.629346e-05
8.735870e-05
8.840760e-05
8.944092e-05
9.045939e-05
9.146377e-05
9.245479e-05
9.343318e-05
9.439967e-05
9.535495e-05
9.629977e-05
9.723480e-05
9.816076e-05
9.907834e-05
9.998823e-05
1.008911e-04
1.017877e-04
1.026786e-04
1.035645e-04
1.044461e-04
1.053240e-04
1.061990e-04
1.070716e-04
1.079424e-04
1.088122e-04
1.096816e-04
1.105512e-04
1.114217e-04
1.122936e-04
1.131675e-04
1.140442e-04
1.149242e-04
1.158082e-04
1.166967e-04
1.175903e-04
1.184897e-04
1.193954e-04
1.203080e-04
1.212281e-04
1.221564e-04
1.230933e-04
1.240395e-04
1.249955e-04
1.259620e-04
1.269394e-04
1.279283e-04
1.289293e-04
1.299429e-04
1.309697e-04
1.320103e-04
1.330650e-04
1.341346e-04
1.352194e-04
1.363201e-04
1.374371e-04
1.385708e-04
1.397219e-04
1.408908e-04
1.420779e-04
1.432837e-04
1.445086e-04
1.457532e-04
1.470177e-04
1.483026e-04
1.496083e-04
1.509351e-04
1.522834e-04
1.536534e-04
1.550456e-04
1.564601e-04
1.578971e-04
1.593569e-04
1.608397e-04
1.623454e-04
1.638743e-04
1.654263e-04
1.670014e-04
1.685994e-04
1.702202e-04
1.718636e-04
1.735292e-04
1.752165e-04
1.769250e-04
1.786541e-04
1.804028e-04
1.821702e-04
1.839551e-04
1.857562e-04
1.875717e-04
1.893998e-04
1.912383e-04
1.930843e-04
1.949349e-04
1.967863e-04
1.986341e-04
2.004732e-04
2.022978e-04
2.041030e-04
2.058934e-04
2.077376e-04
2.100840e-04
2.156020e-04
2.399133e-04
3.741277e-04
1.247092e-04
8.299563e-05
7.689468e-05
7.687812e-05
7.787984e-05
7.903114e-05
8.018356e-05
8.131220e-05
8.241335e-05
8.348693e-05
8.453343e-05
8.555342e-05
8.654746e-05
8.751607e-05
8.845975e-05
8.937894e-05
9.027405e-05
9.114546e-05
9.199354e-05
9.281859e-05
9.362091e-05
9.440077e-05
9.515842e-05
9.589409e-05
9.660799e-05
9.730031e-05
9.797124e-05
9.862094e-05
9.924956e-05
9.985725e-05
1.004441e-04
1.010104e-04
1.015560e-04
1.020812e-04
1.025861e-04
1.030707e-04
1.035351e-04
1.039794e-04
1.044036e-04
1.048079e-04
1.051922e-04
1.055566e-04
1.059012e-04
1.062259e-04
1.065308e-04
1.068159e-04
1.070811e-04
1.073266e-04
1.075522e-04
1.077580e-04
1.079439e-04
1.081099e-04
1.082559e-04
1.083819e-04
1.084878e-04
1.085735e-04
1.086391e-04
1.086843e-04
1.087091e-04
1.087135e-04
1.086972e-04
1.086601e-04
1.086022e-04
1.085233e-04
1.084233e-04
1.083020e-04
1.081593e-04
1.079949e-04
1.078088e-04
1.076007e-04
1.073704e-04
1.071178e-04
1.068427e-04
1.065447e-04
1.062238e-04
1.058796e-04
1.055120e-04
1.051207e-04
1.047055e-04
1.042660e-04
1.038020e-04
1.033133e-04
1.027995e-04
1.022604e-04
1.016957e-04
1.011051e-04
1.004882e-04
9.984482e-05
9.917454e-05
9.847707e-05
9.775207e-05
9.699921e-05
9.621815e-05
9.540854e-05
9.457003e-05
9.370227e-05
9.280491e-05
9.187760e-05
9.091996e-05
8.993166e-05
8.891233e-05
8.786161e-05
8.677916e-05
8.566463e-05
8.451767e-05
8.333797e-05
8.212517e-05
8.087899e-05
7.959911e-05
7.828524e-05
7.693712e-05
7.555449e-05
7.413714e-05
7.268487e-05
7.119749e-05
6.967487e-05
6.811692e-05
6.652358e-05
6.489482e-05
6.323069e-05
6.153128e-05
5.979673e-05
5.802726e-05
5.622315e-05
5.438477e-05
5.251254e-05
5.060698e-05
4.866870e-05
4.669838e-05
4.469680e-05
4.266484e-05
4.060346e-05
3.851370e-05
3.639670e-05
3.425368e-05
3.208593e-05
2.989482e-05
2.768179e-05
2.544833e-05
2.319598e-05
2.092635e-05
1.864106e-05
1.634178e-05
1.403021e-05
1.170807e-05
9.377096e-06
7.039035e-06
4.695653e-06
2.348729e-06
8.934700e-11
1.247092e-04
8.299563e-05
7.689468e-05
7.687812e-05
7.787984e-05
7.903114e-05
8.018356e-05
8.131220e-05
8.241335e-05
8.348693e-05
8.453343e-05
8.555342e-05
8.654746e-05
8.751608e-05
8.845975e-05
8.937894e-05
9.027405e-05
9.114547e-05
9.199354e-05
9.281859e-05
9.362091e-05
9.440077e-05
9.515842e-05
9.589409e-05
9.660799e-05
9.730031e-05
9.797124e-05
9.862094e-05
9.924956e-05
9.985725e-05
1.004441e-04
1.010104e-04
1.015560e-04
1.020812e-04
1.025861e-04
1.030707e-04
1.035351e-04
1.039794e-04
1.044036e-04
1.048079e-04
1.051922e-04
1.055566e-04
1.059012e-04
1.062259e-04
1.065308e-04
1.068159e-04
1.070811e-04
1.073266e-04
1.075522e-04
1.077580e-04
1.079439e-04
1.081099e-04
1.082559e-04
1.083819e-04
1.084878e-04
1.085735e-04
1.086391e-04
1.086843e-04
1.087091e-04
1.087135e-04
1.086972e-04
1.086601e-04
1.086022e-04
1.085233e-04
1.084233e-04
1.083020e-04
1.081593e-04
1.079949e-04
1.078088e-04
1.076007e-04
1.073704e-04
1.071178e-04
1.068427e-04
1.065447e-04
1.062238e-04
1.058796e-04
1.055120e-04
1.051207e-04
1.047055e-04
1.042660e-04
1.038020e-04
1.033133e-04
1.027995e-04
1.022604e-04
1.016957e-04
1.011051e-04
1.004882e-04
9.984482e-05
9.917454e-05
9.847707e-05
9.775207e-05
9.699921e-05
9.621815e-05
9.540854e-05
9.457003e-05
9.370227e-05
9.280491e-05
9.187760e-05
9.091996e-05
8.993166e-05
8.891233e-05
8.786161e-05
8.677916e-05
8.566463e-05
8.451767e-05
8.333797e-05
8.212517e-05
8.087899e-05
7.959911e-05
7.828524e-05
7.693712e-05
7.555449e-05
7.413714e-05
7.268487e-05
7.119749e-05
6.967487e-05
6.811692e-05
6.652358e-05
6.489482e-05
6.323069e-05
6.153128e-05
5.979673e-05
5.802726e-05
5.622315e-05
5.438477e-05
5.251254e-05
5.060698e-05
4.866870e-05
4.669838e-05
4.469680e-05
4.266484e-05
4.060346e-05
3.851370e-05
3.639670e-05
3.425368e-05
3.208593e-05
2.989482e-05
2.768179e-05
2.544833e-05
2.319598e-05
2.092635e-05
1.864106e-05
1.634178e-05
1.403021e-05
1.170807e-05
9.377096e-06
7.039035e-06
4.695653e-06
2.348729e-06
8.934685e-11
1.247092e-04
8.299563e-05
7.689468e-05
7.687812e-05
7.787984e-05
7.903114e-05
8.018356e-05
8.131220e-05
8.241336e-05
8.348693e-05
8.453343e-05
8.555342e-05
8.654746e-05
8.751608e-05
8.845975e-05
8.937894e-05
9.027405e-05
9.114547e-05
9.199354e-05
9.281859e-05
9.362091e-05
9.440077e-05
9.515842e-05
9.589409e-05
9.660799e-05
9.730031e-05
9.797124e-05
9.862094e-05
9.924956e-05
9.985725e-05
1.004441e-04
1.010104e-04
1.015560e-04
1.020812e-04
1.025861e-04
1.030707e-04
1.035351e-04
1.039794e-04
1.044036e-04
1.048079e-04
1.051922e-04
1.055566e-04
1.059012e-04
1.062259e-04
1.065308e-04
1.068159e-04
1.070811e-04
1.073266e-04
1.075522e-04
1.077580e-04
1.079439e-04
1.081099e-04
1.082559e-04
1.083819e-04
1.084878e-04
1.085735e-04
1.086391e-04
1.086843e-04
1.087091e-04
1.087135e-04
1.086972e-04
1.086601e-04
1.086022e-04
1.085233e-04
1.084233e-04
1.083020e-04
1.081593e-04
1.079949e-04
1.078088e-04
1.076007e-04
1.073704e-04
1.071178e-04
1.068427e-04
1.065447e-04
1.062238e-04
1.058796e-04
1.055120e-04
1.051207e-04
1.047055e-04
1.042660e-04
1.038020e-04
1.033133e-04
1.027995e-04
1.022604e-04
1.016957e-04
1.011051e-04
1.004882e-04
9.984482e-05
9.917454e-05
9.847707e-05
9.775207e-05
9.699921e-05
9.621815e-05
9.540854e-05
9.457003e-05
9.370227e-05
9.280491e-05
9.187760e-05
9.091996e-05
8.993166e-05
8.891233e-05
8.786161e-05
8.677916e-05
8.566463e-05
8.451768e-05
8.333797e-05
8.212517e-05
8.087899e-05
7.959911e-05
7.828524e-05
7.693712e-05
7.555449e-05
7.413714e-05
7.268487e-05
7.119749e-05
6.967487e-05
6.811692e-05
6.652358e-05
6.489482e-05
6.323069e-05
6.153128e-05
5.979673e-05
5.802726e-05
5.622315e-05
5.438477e-05
5.251254e-05
5.060698e-05
4.866870e-05
4.669838e-05
4.469680e-05
4.266484e-05
4.060346e-05
3.851370e-05
3.639670e-05
3.425368e-05
3.208593e-05
2.989482e-05
2.768179e-05
2.544833e-05
2.319598e-05
2.092635e-05
1.864106e-05
1.634178e-05
1.403021e-05
1.170807e-05
9.377096e-06
7.039035e-06
4.695653e-06
2.348729e-06
8.934847e-11
