# vtk DataFile Version 3.0
Monodomain FEM
ASCII
DATASET POLYDATA
POINTS 301 float
0.000000e+00 0.000000e+00 0.000000e+00
6.667000e-03 0.000000e+00 0.000000e+00
1.333300e-02 0.000000e+00 0.000000e+00
2.000000e-02 0.000000e+00 0.000000e+00
2.666700e-02 0.000000e+00 0.000000e+00
3.333300e-02 0.000000e+00 0.000000e+00
4.000000e-02 0.000000e+00 0.000000e+00
4.666700e-02 0.000000e+00 0.000000e+00
5.333300e-02 0.000000e+00 0.000000e+00
6.000000e-02 0.000000e+00 0.000000e+00
6.666700e-02 0.000000e+00 0.000000e+00
7.333300e-02 0.000000e+00 0.000000e+00
8.000000e-02 0.000000e+00 0.000000e+00
8.666700e-02 0.000000e+00 0.000000e+00
9.333300e-02 0.000000e+00 0.000000e+00
1.000000e-01 0.000000e+00 0.000000e+00
1.066670e-01 0.000000e+00 0.000000e+00
1.133330e-01 0.000000e+00 0.000000e+00
1.200000e-01 0.000000e+00 0.000000e+00
1.266670e-01 0.000000e+00 0.000000e+00
1.333330e-01 0.000000e+00 0.000000e+00
1.400000e-01 0.000000e+00 0.000000e+00
1.466670e-01 0.000000e+00 0.000000e+00
1.533330e-01 0.000000e+00 0.000000e+00
1.600000e-01 0.000000e+00 0.000000e+00
1.666670e-01 0.000000e+00 0.000000e+00
1.733330e-01 0.000000e+00 0.000000e+00
1.800000e-01 0.000000e+00 0.000000e+00
1.866670e-01 0.000000e+00 0.000000e+00
1.933330e-01 0.000000e+00 0.000000e+00
2.000000e-01 0.000000e+00 0.000000e+00
2.066670e-01 0.000000e+00 0.000000e+00
2.133330e-01 0.000000e+00 0.000000e+00
2.200000e-01 0.000000e+00 0.000000e+00
2.266670e-01 0.000000e+00 0.000000e+00
2.333330e-01 0.000000e+00 0.000000e+00
2.400000e-01 0.000000e+00 0.000000e+00
2.466670e-01 0.000000e+00 0.000000e+00
2.533330e-01 0.000000e+00 0.000000e+00
2.600000e-01 0.000000e+00 0.000000e+00
2.666670e-01 0.000000e+00 0.000000e+00
2.733330e-01 0.000000e+00 0.000000e+00
2.800000e-01 0.000000e+00 0.000000e+00
2.866670e-01 0.000000e+00 0.000000e+00
2.933330e-01 0.000000e+00 0.000000e+00
3.000000e-01 0.000000e+00 0.000000e+00
3.066670e-01 0.000000e+00 0.000000e+00
3.133330e-01 0.000000e+00 0.000000e+00
3.200000e-01 0.000000e+00 0.000000e+00
3.266670e-01 0.000000e+00 0.000000e+00
3.333330e-01 0.000000e+00 0.000000e+00
3.400000e-01 0.000000e+00 0.000000e+00
3.466670e-01 0.000000e+00 0.000000e+00
3.533330e-01 0.000000e+00 0.000000e+00
3.600000e-01 0.000000e+00 0.000000e+00
3.666670e-01 0.000000e+00 0.000000e+00
3.733330e-01 0.000000e+00 0.000000e+00
3.800000e-01 0.000000e+00 0.000000e+00
3.866670e-01 0.000000e+00 0.000000e+00
3.933330e-01 0.000000e+00 0.000000e+00
4.000000e-01 0.000000e+00 0.000000e+00
4.066670e-01 0.000000e+00 0.000000e+00
4.133330e-01 0.000000e+00 0.000000e+00
4.200000e-01 0.000000e+00 0.000000e+00
4.266670e-01 0.000000e+00 0.000000e+00
4.333330e-01 0.000000e+00 0.000000e+00
4.400000e-01 0.000000e+00 0.000000e+00
4.466670e-01 0.000000e+00 0.000000e+00
4.533330e-01 0.000000e+00 0.000000e+00
4.600000e-01 0.000000e+00 0.000000e+00
4.666670e-01 0.000000e+00 0.000000e+00
4.733330e-01 0.000000e+00 0.000000e+00
4.800000e-01 0.000000e+00 0.000000e+00
4.866670e-01 0.000000e+00 0.000000e+00
4.933330e-01 0.000000e+00 0.000000e+00
5.000000e-01 0.000000e+00 0.000000e+00
5.066670e-01 0.000000e+00 0.000000e+00
5.133330e-01 0.000000e+00 0.000000e+00
5.200000e-01 0.000000e+00 0.000000e+00
5.266670e-01 0.000000e+00 0.000000e+00
5.333330e-01 0.000000e+00 0.000000e+00
5.400000e-01 0.000000e+00 0.000000e+00
5.466670e-01 0.000000e+00 0.000000e+00
5.533330e-01 0.000000e+00 0.000000e+00
5.600000e-01 0.000000e+00 0.000000e+00
5.666670e-01 0.000000e+00 0.000000e+00
5.733330e-01 0.000000e+00 0.000000e+00
5.800000e-01 0.000000e+00 0.000000e+00
5.866670e-01 0.000000e+00 0.000000e+00
5.933330e-01 0.000000e+00 0.000000e+00
6.000000e-01 0.000000e+00 0.000000e+00
6.066670e-01 0.000000e+00 0.000000e+00
6.133330e-01 0.000000e+00 0.000000e+00
6.200000e-01 0.000000e+00 0.000000e+00
6.266670e-01 0.000000e+00 0.000000e+00
6.333330e-01 0.000000e+00 0.000000e+00
6.400000e-01 0.000000e+00 0.000000e+00
6.466670e-01 0.000000e+00 0.000000e+00
6.533330e-01 0.000000e+00 0.000000e+00
6.600000e-01 0.000000e+00 0.000000e+00
6.666670e-01 0.000000e+00 0.000000e+00
6.733330e-01 0.000000e+00 0.000000e+00
6.800000e-01 0.000000e+00 0.000000e+00
6.866670e-01 0.000000e+00 0.000000e+00
6.933330e-01 0.000000e+00 0.000000e+00
7.000000e-01 0.000000e+00 0.000000e+00
7.066670e-01 0.000000e+00 0.000000e+00
7.133330e-01 0.000000e+00 0.000000e+00
7.200000e-01 0.000000e+00 0.000000e+00
7.266670e-01 0.000000e+00 0.000000e+00
7.333330e-01 0.000000e+00 0.000000e+00
7.400000e-01 0.000000e+00 0.000000e+00
7.466670e-01 0.000000e+00 0.000000e+00
7.533330e-01 0.000000e+00 0.000000e+00
7.600000e-01 0.000000e+00 0.000000e+00
7.666670e-01 0.000000e+00 0.000000e+00
7.733330e-01 0.000000e+00 0.000000e+00
7.800000e-01 0.000000e+00 0.000000e+00
7.866670e-01 0.000000e+00 0.000000e+00
7.933330e-01 0.000000e+00 0.000000e+00
8.000000e-01 0.000000e+00 0.000000e+00
8.066670e-01 0.000000e+00 0.000000e+00
8.133330e-01 0.000000e+00 0.000000e+00
8.200000e-01 0.000000e+00 0.000000e+00
8.266670e-01 0.000000e+00 0.000000e+00
8.333330e-01 0.000000e+00 0.000000e+00
8.400000e-01 0.000000e+00 0.000000e+00
8.466670e-01 0.000000e+00 0.000000e+00
8.533330e-01 0.000000e+00 0.000000e+00
8.600000e-01 0.000000e+00 0.000000e+00
8.666670e-01 0.000000e+00 0.000000e+00
8.733330e-01 0.000000e+00 0.000000e+00
8.800000e-01 0.000000e+00 0.000000e+00
8.866670e-01 0.000000e+00 0.000000e+00
8.933330e-01 0.000000e+00 0.000000e+00
9.000000e-01 0.000000e+00 0.000000e+00
9.066670e-01 0.000000e+00 0.000000e+00
9.133330e-01 0.000000e+00 0.000000e+00
9.200000e-01 0.000000e+00 0.000000e+00
9.266670e-01 0.000000e+00 0.000000e+00
9.333330e-01 0.000000e+00 0.000000e+00
9.400000e-01 0.000000e+00 0.000000e+00
9.466670e-01 0.000000e+00 0.000000e+00
9.533330e-01 0.000000e+00 0.000000e+00
9.600000e-01 0.000000e+00 0.000000e+00
9.666670e-01 0.000000e+00 0.000000e+00
9.733330e-01 0.000000e+00 0.000000e+00
9.800000e-01 0.000000e+00 0.000000e+00
9.866670e-01 0.000000e+00 0.000000e+00
9.933330e-01 0.000000e+00 0.000000e+00
1.000000e+00 0.000000e+00 0.000000e+00
1.006667e+00 0.000000e+00 0.000000e+00
1.013333e+00 0.000000e+00 0.000000e+00
1.020000e+00 0.000000e+00 0.000000e+00
1.026667e+00 0.000000e+00 0.000000e+00
1.033333e+00 0.000000e+00 0.000000e+00
1.040000e+00 0.000000e+00 0.000000e+00
1.046667e+00 0.000000e+00 0.000000e+00
1.053333e+00 0.000000e+00 0.000000e+00
1.060000e+00 0.000000e+00 0.000000e+00
1.066667e+00 0.000000e+00 0.000000e+00
1.073333e+00 0.000000e+00 0.000000e+00
1.080000e+00 0.000000e+00 0.000000e+00
1.086667e+00 0.000000e+00 0.000000e+00
1.093333e+00 0.000000e+00 0.000000e+00
1.100000e+00 0.000000e+00 0.000000e+00
1.106667e+00 0.000000e+00 0.000000e+00
1.113333e+00 0.000000e+00 0.000000e+00
1.120000e+00 0.000000e+00 0.000000e+00
1.126667e+00 0.000000e+00 0.000000e+00
1.133333e+00 0.000000e+00 0.000000e+00
1.140000e+00 0.000000e+00 0.000000e+00
1.146667e+00 0.000000e+00 0.000000e+00
1.153333e+00 0.000000e+00 0.000000e+00
1.160000e+00 0.000000e+00 0.000000e+00
1.166667e+00 0.000000e+00 0.000000e+00
1.173333e+00 0.000000e+00 0.000000e+00
1.180000e+00 0.000000e+00 0.000000e+00
1.186667e+00 0.000000e+00 0.000000e+00
1.193333e+00 0.000000e+00 0.000000e+00
1.200000e+00 0.000000e+00 0.000000e+00
1.206667e+00 0.000000e+00 0.000000e+00
1.213333e+00 0.000000e+00 0.000000e+00
1.220000e+00 0.000000e+00 0.000000e+00
1.226667e+00 0.000000e+00 0.000000e+00
1.233333e+00 0.000000e+00 0.000000e+00
1.240000e+00 0.000000e+00 0.000000e+00
1.246667e+00 0.000000e+00 0.000000e+00
1.253333e+00 0.000000e+00 0.000000e+00
1.260000e+00 0.000000e+00 0.000000e+00
1.266667e+00 0.000000e+00 0.000000e+00
1.273333e+00 0.000000e+00 0.000000e+00
1.280000e+00 0.000000e+00 0.000000e+00
1.286667e+00 0.000000e+00 0.000000e+00
1.293333e+00 0.000000e+00 0.000000e+00
1.300000e+00 0.000000e+00 0.000000e+00
1.306667e+00 0.000000e+00 0.000000e+00
1.313333e+00 0.000000e+00 0.000000e+00
1.320000e+00 0.000000e+00 0.000000e+00
1.326667e+00 0.000000e+00 0.000000e+00
1.333333e+00 0.000000e+00 0.000000e+00
1.340000e+00 0.000000e+00 0.000000e+00
1.346667e+00 0.000000e+00 0.000000e+00
1.353333e+00 0.000000e+00 0.000000e+00
1.360000e+00 0.000000e+00 0.000000e+00
1.366667e+00 0.000000e+00 0.000000e+00
1.373333e+00 0.000000e+00 0.000000e+00
1.380000e+00 0.000000e+00 0.000000e+00
1.386667e+00 0.000000e+00 0.000000e+00
1.393333e+00 0.000000e+00 0.000000e+00
1.400000e+00 0.000000e+00 0.000000e+00
1.406667e+00 0.000000e+00 0.000000e+00
1.413333e+00 0.000000e+00 0.000000e+00
1.420000e+00 0.000000e+00 0.000000e+00
1.426667e+00 0.000000e+00 0.000000e+00
1.433333e+00 0.000000e+00 0.000000e+00
1.440000e+00 0.000000e+00 0.000000e+00
1.446667e+00 0.000000e+00 0.000000e+00
1.453333e+00 0.000000e+00 0.000000e+00
1.460000e+00 0.000000e+00 0.000000e+00
1.466667e+00 0.000000e+00 0.000000e+00
1.473333e+00 0.000000e+00 0.000000e+00
1.480000e+00 0.000000e+00 0.000000e+00
1.486667e+00 0.000000e+00 0.000000e+00
1.493333e+00 0.000000e+00 0.000000e+00
1.500000e+00 0.000000e+00 0.000000e+00
1.506667e+00 0.000000e+00 0.000000e+00
1.513333e+00 0.000000e+00 0.000000e+00
1.520000e+00 0.000000e+00 0.000000e+00
1.526667e+00 0.000000e+00 0.000000e+00
1.533333e+00 0.000000e+00 0.000000e+00
1.540000e+00 0.000000e+00 0.000000e+00
1.546667e+00 0.000000e+00 0.000000e+00
1.553333e+00 0.000000e+00 0.000000e+00
1.560000e+00 0.000000e+00 0.000000e+00
1.566667e+00 0.000000e+00 0.000000e+00
1.573333e+00 0.000000e+00 0.000000e+00
1.580000e+00 0.000000e+00 0.000000e+00
1.586667e+00 0.000000e+00 0.000000e+00
1.593333e+00 0.000000e+00 0.000000e+00
1.600000e+00 0.000000e+00 0.000000e+00
1.606667e+00 0.000000e+00 0.000000e+00
1.613333e+00 0.000000e+00 0.000000e+00
1.620000e+00 0.000000e+00 0.000000e+00
1.626667e+00 0.000000e+00 0.000000e+00
1.633333e+00 0.000000e+00 0.000000e+00
1.640000e+00 0.000000e+00 0.000000e+00
1.646667e+00 0.000000e+00 0.000000e+00
1.653333e+00 0.000000e+00 0.000000e+00
1.660000e+00 0.000000e+00 0.000000e+00
1.666667e+00 0.000000e+00 0.000000e+00
1.673333e+00 0.000000e+00 0.000000e+00
1.680000e+00 0.000000e+00 0.000000e+00
1.686667e+00 0.000000e+00 0.000000e+00
1.693333e+00 0.000000e+00 0.000000e+00
1.700000e+00 0.000000e+00 0.000000e+00
1.706667e+00 0.000000e+00 0.000000e+00
1.713333e+00 0.000000e+00 0.000000e+00
1.720000e+00 0.000000e+00 0.000000e+00
1.726667e+00 0.000000e+00 0.000000e+00
1.733333e+00 0.000000e+00 0.000000e+00
1.740000e+00 0.000000e+00 0.000000e+00
1.746667e+00 0.000000e+00 0.000000e+00
1.753333e+00 0.000000e+00 0.000000e+00
1.760000e+00 0.000000e+00 0.000000e+00
1.766667e+00 0.000000e+00 0.000000e+00
1.773333e+00 0.000000e+00 0.000000e+00
1.780000e+00 0.000000e+00 0.000000e+00
1.786667e+00 0.000000e+00 0.000000e+00
1.793333e+00 0.000000e+00 0.000000e+00
1.800000e+00 0.000000e+00 0.000000e+00
1.806667e+00 0.000000e+00 0.000000e+00
1.813333e+00 0.000000e+00 0.000000e+00
1.820000e+00 0.000000e+00 0.000000e+00
1.826667e+00 0.000000e+00 0.000000e+00
1.833333e+00 0.000000e+00 0.000000e+00
1.840000e+00 0.000000e+00 0.000000e+00
1.846667e+00 0.000000e+00 0.000000e+00
1.853333e+00 0.000000e+00 0.000000e+00
1.860000e+00 0.000000e+00 0.000000e+00
1.866667e+00 0.000000e+00 0.000000e+00
1.873333e+00 0.000000e+00 0.000000e+00
1.880000e+00 0.000000e+00 0.000000e+00
1.886667e+00 0.000000e+00 0.000000e+00
1.893333e+00 0.000000e+00 0.000000e+00
1.900000e+00 0.000000e+00 0.000000e+00
1.906667e+00 0.000000e+00 0.000000e+00
1.913333e+00 0.000000e+00 0.000000e+00
1.920000e+00 0.000000e+00 0.000000e+00
1.926667e+00 0.000000e+00 0.000000e+00
1.933333e+00 0.000000e+00 0.000000e+00
1.940000e+00 0.000000e+00 0.000000e+00
1.946667e+00 0.000000e+00 0.000000e+00
1.953333e+00 0.000000e+00 0.000000e+00
1.960000e+00 0.000000e+00 0.000000e+00
1.966667e+00 0.000000e+00 0.000000e+00
1.973333e+00 0.000000e+00 0.000000e+00
1.980000e+00 0.000000e+00 0.000000e+00
1.986667e+00 0.000000e+00 0.000000e+00
1.993333e+00 0.000000e+00 0.000000e+00
2.000000e+00 0.000000e+00 0.000000e+00
LINES 301 900
2 0 1
2 1 2
2 2 3
2 3 4
2 4 5
2 5 6
2 6 7
2 7 8
2 8 9
2 9 10
2 10 11
2 11 12
2 12 13
2 13 14
2 14 15
2 15 16
2 16 17
2 17 18
2 18 19
2 19 20
2 20 21
2 21 22
2 22 23
2 23 24
2 24 25
2 25 26
2 26 27
2 27 28
2 28 29
2 29 30
2 30 31
2 31 32
2 32 33
2 33 34
2 34 35
2 35 36
2 36 37
2 37 38
2 38 39
2 39 40
2 40 41
2 41 42
2 42 43
2 43 44
2 44 45
2 45 46
2 46 47
2 47 48
2 48 49
2 49 50
2 50 51
2 51 52
2 52 53
2 53 54
2 54 55
2 55 56
2 56 57
2 57 58
2 58 59
2 59 60
2 60 61
2 61 62
2 62 63
2 63 64
2 64 65
2 65 66
2 66 67
2 67 68
2 68 69
2 69 70
2 70 71
2 71 72
2 72 73
2 73 74
2 74 75
2 75 76
2 76 77
2 77 78
2 78 79
2 79 80
2 80 81
2 81 82
2 82 83
2 83 84
2 84 85
2 85 86
2 86 87
2 87 88
2 88 89
2 89 90
2 90 91
2 91 92
2 92 93
2 93 94
2 94 95
2 95 96
2 96 97
2 97 98
2 98 99
2 99 100
2 100 101
2 101 102
2 102 103
2 103 104
2 104 105
2 105 106
2 106 107
2 107 108
2 108 109
2 109 110
2 110 111
2 111 112
2 112 113
2 113 114
2 114 115
2 115 116
2 116 117
2 117 118
2 118 119
2 119 120
2 120 121
2 121 122
2 122 123
2 123 124
2 124 125
2 125 126
2 126 127
2 127 128
2 128 129
2 129 130
2 130 131
2 131 132
2 132 133
2 133 134
2 134 135
2 135 136
2 136 137
2 137 138
2 138 139
2 139 140
2 140 141
2 141 142
2 142 143
2 143 144
2 144 145
2 145 146
2 146 147
2 147 148
2 148 149
2 149 150
2 150 151
2 151 152
2 152 153
2 153 154
2 154 155
2 155 156
2 156 157
2 157 158
2 158 159
2 159 160
2 160 161
2 161 162
2 162 163
2 163 164
2 164 165
2 165 166
2 166 167
2 167 168
2 168 169
2 169 170
2 170 171
2 171 172
2 172 173
2 173 174
2 174 175
2 175 176
2 176 177
2 177 178
2 178 179
2 179 180
2 180 181
2 181 182
2 182 183
2 183 184
2 184 185
2 185 186
2 186 187
2 187 188
2 188 189
2 189 190
2 190 191
2 191 192
2 192 193
2 193 194
2 194 195
2 195 196
2 196 197
2 197 198
2 198 199
2 199 200
2 200 201
2 201 202
2 202 203
2 203 204
2 204 205
2 205 206
2 206 207
2 207 208
2 208 209
2 209 210
2 210 211
2 211 212
2 212 213
2 213 214
2 214 215
2 215 216
2 216 217
2 217 218
2 218 219
2 219 220
2 220 221
2 221 222
2 222 223
2 223 224
2 224 225
2 225 226
2 226 227
2 227 228
2 228 229
2 229 230
2 230 231
2 231 232
2 232 233
2 233 234
2 234 235
2 235 236
2 236 237
2 237 238
2 238 239
2 239 240
2 240 241
2 241 242
2 242 243
2 243 244
2 244 245
2 245 246
2 246 247
2 247 248
2 248 249
2 249 250
2 250 251
2 251 252
2 252 253
2 253 254
2 254 255
2 255 256
2 256 257
2 257 258
2 258 259
2 259 260
2 260 261
2 261 262
2 262 263
2 263 264
2 264 265
2 265 266
2 266 267
2 267 268
2 268 269
2 269 270
2 270 271
2 271 272
2 272 273
2 273 274
2 274 275
2 275 276
2 276 277
2 277 278
2 278 279
2 279 280
2 280 281
2 281 282
2 282 283
2 283 284
2 284 285
2 285 286
2 286 287
2 287 288
2 288 289
2 289 290
2 290 291
2 291 292
2 292 293
2 293 294
2 294 295
2 295 296
2 296 297
2 297 298
2 298 299
2 299 300
POINT_DATA 301
SCALARS vm float 1
LOOKUP_TABLE default
-7.383494e+01
-7.383493e+01
-7.383490e+01
-7.383485e+01
-7.383478e+01
-7.383469e+01
-7.383450e+01
-7.383438e+01
-7.383425e+01
-7.383411e+01
-7.383395e+01
-7.383378e+01
-7.383360e+01
-7.383340e+01
-7.383319e+01
-7.383297e+01
-7.383274e+01
-7.383250e+01
-7.383224e+01
-7.383197e+01
-7.383170e+01
-7.383141e+01
-7.383111e+01
-7.383079e+01
-7.383047e+01
-7.383014e+01
-7.382980e+01
-7.382945e+01
-7.382908e+01
-7.382871e+01
-7.382833e+01
-7.382794e+01
-7.382754e+01
-7.382713e+01
-7.382671e+01
-7.382629e+01
-7.382585e+01
-7.382541e+01
-7.382495e+01
-7.382449e+01
-7.382402e+01
-7.382355e+01
-7.382306e+01
-7.382257e+01
-7.382207e+01
-7.382156e+01
-7.382104e+01
-7.382052e+01
-7.381999e+01
-7.381946e+01
-7.381891e+01
-7.381836e+01
-7.381780e+01
-7.381724e+01
-7.381667e+01
-7.381610e+01
-7.381551e+01
-7.381492e+01
-7.381433e+01
-7.381373e+01
-7.381312e+01
-7.381251e+01
-7.381189e+01
-7.381127e+01
-7.381064e+01
-7.381001e+01
-7.380937e+01
-7.380872e+01
-7.380808e+01
-7.380742e+01
-7.380676e+01
-7.380610e+01
-7.380543e+01
-7.380476e+01
-7.380408e+01
-7.380340e+01
-7.380271e+01
-7.380202e+01
-7.380133e+01
-7.380063e+01
-7.379992e+01
-7.379922e+01
-7.379851e+01
-7.379779e+01
-7.379707e+01
-7.379635e+01
-7.379563e+01
-7.379490e+01
-7.379417e+01
-7.379343e+01
-7.379269e+01
-7.379195e+01
-7.379120e+01
-7.379045e+01
-7.378970e+01
-7.378895e+01
-7.378819e+01
-7.378743e+01
-7.378667e+01
-7.378590e+01
-7.378513e+01
-7.378436e+01
-7.378359e+01
-7.378281e+01
-7.378203e+01
-7.378125e+01
-7.378047e+01
-7.377968e+01
-7.377889e+01
-7.377810e+01
-7.377731e+01
-7.377652e+01
-7.377572e+01
-7.377492e+01
-7.377412e+01
-7.377332e+01
-7.377252e+01
-7.377171e+01
-7.377091e+01
-7.377010e+01
-7.376929e+01
-7.376848e+01
-7.376767e+01
-7.376685e+01
-7.376604e+01
-7.376522e+01
-7.376440e+01
-7.376358e+01
-7.376276e+01
-7.376194e+01
-7.376112e+01
-7.376029e+01
-7.375947e+01
-7.375864e+01
-7.375782e+01
-7.375699e+01
-7.375616e+01
-7.375533e+01
-7.375450e+01
-7.375367e+01
-7.375284e+01
-7.375201e+01
-7.375118e+01
-7.375035e+01
-7.374952e+01
-7.374868e+01
-7.374785e+01
-7.374702e+01
-7.374618e+01
-7.374535e+01
-7.374452e+01
-7.374368e+01
-7.374285e+01
-7.374201e+01
-7.374118e+01
-7.374035e+01
-7.373951e+01
-7.373868e+01
-7.373785e+01
-7.373701e+01
-7.373618e+01
-7.373535e+01
-7.373452e+01
-7.373369e+01
-7.373286e+01
-7.373203e+01
-7.373120e+01
-7.373037e+01
-7.372954e+01
-7.372872e+01
-7.372789e+01
-7.372707e+01
-7.372624e+01
-7.372542e+01
-7.372460e+01
-7.372378e+01
-7.372296e+01
-7.372214e+01
-7.372132e+01
-7.372050e+01
-7.371969e+01
-7.371888e+01
-7.371806e+01
-7.371725e+01
-7.371645e+01
-7.371564e+01
-7.371483e+01
-7.371403e+01
-7.371323e+01
-7.371243e+01
-7.371163e+01
-7.371084e+01
-7.371004e+01
-7.370925e+01
-7.370846e+01
-7.370767e+01
-7.370689e+01
-7.370611e+01
-7.370533e+01
-7.370455e+01
-7.370377e+01
-7.370300e+01
-7.370223e+01
-7.370146e+01
-7.370070e+01
-7.369994e+01
-7.369918e+01
-7.369842e+01
-7.369767e+01
-7.369692e+01
-7.369618e+01
-7.369544e+01
-7.369470e+01
-7.369396e+01
-7.369323e+01
-7.369250e+01
-7.369178e+01
-7.369106e+01
-7.369034e+01
-7.368963e+01
-7.368892e+01
-7.368821e+01
-7.368751e+01
-7.368682e+01
-7.368612e+01
-7.368544e+01
-7.368475e+01
-7.368408e+01
-7.368340e+01
-7.368273e+01
-7.368207e+01
-7.368141e+01
-7.368076e+01
-7.368011e+01
-7.367947e+01
-7.367883e+01
-7.367820e+01
-7.367757e+01
-7.367695e+01
-7.367634e+01
-7.367573e+01
-7.367513e+01
-7.367453e+01
-7.367394e+01
-7.367336e+01
-7.367278e+01
-7.367221e+01
-7.367165e+01
-7.367109e+01
-7.367054e+01
-7.367000e+01
-7.366947e+01
-7.366894e+01
-7.366842e+01
-7.366791e+01
-7.366740e+01
-7.366691e+01
-7.366642e+01
-7.366594e+01
-7.366547e+01
-7.366500e+01
-7.366455e+01
-7.366410e+01
-7.366367e+01
-7.366324e+01
-7.366282e+01
-7.366241e+01
-7.366201e+01
-7.366162e+01
-7.366124e+01
-7.366088e+01
-7.366052e+01
-7.366017e+01
-7.365983e+01
-7.365950e+01
-7.365918e+01
-7.365888e+01
-7.365858e+01
-7.365830e+01
-7.365803e+01
-7.365776e+01
-7.365752e+01
-7.365728e+01
-7.365705e+01
-7.365684e+01
-7.365664e+01
-7.365645e+01
-7.365628e+01
-7.365611e+01
-7.365596e+01
-7.365582e+01
-7.365570e+01
-7.365559e+01
-7.365549e+01
-7.365540e+01
-7.365533e+01
-7.365527e+01
-7.365522e+01
-7.365519e+01
-7.365517e+01
-7.365516e+01
