# vtk DataFile Version 3.0
Monodomain FEM
ASCII
DATASET POLYDATA
POINTS 301 float
0.000000e+00 0.000000e+00 0.000000e+00
6.667000e-03 0.000000e+00 0.000000e+00
1.333300e-02 0.000000e+00 0.000000e+00
2.000000e-02 0.000000e+00 0.000000e+00
2.666700e-02 0.000000e+00 0.000000e+00
3.333300e-02 0.000000e+00 0.000000e+00
4.000000e-02 0.000000e+00 0.000000e+00
4.666700e-02 0.000000e+00 0.000000e+00
5.333300e-02 0.000000e+00 0.000000e+00
6.000000e-02 0.000000e+00 0.000000e+00
6.666700e-02 0.000000e+00 0.000000e+00
7.333300e-02 0.000000e+00 0.000000e+00
8.000000e-02 0.000000e+00 0.000000e+00
8.666700e-02 0.000000e+00 0.000000e+00
9.333300e-02 0.000000e+00 0.000000e+00
1.000000e-01 0.000000e+00 0.000000e+00
1.066670e-01 0.000000e+00 0.000000e+00
1.133330e-01 0.000000e+00 0.000000e+00
1.200000e-01 0.000000e+00 0.000000e+00
1.266670e-01 0.000000e+00 0.000000e+00
1.333330e-01 0.000000e+00 0.000000e+00
1.400000e-01 0.000000e+00 0.000000e+00
1.466670e-01 0.000000e+00 0.000000e+00
1.533330e-01 0.000000e+00 0.000000e+00
1.600000e-01 0.000000e+00 0.000000e+00
1.666670e-01 0.000000e+00 0.000000e+00
1.733330e-01 0.000000e+00 0.000000e+00
1.800000e-01 0.000000e+00 0.000000e+00
1.866670e-01 0.000000e+00 0.000000e+00
1.933330e-01 0.000000e+00 0.000000e+00
2.000000e-01 0.000000e+00 0.000000e+00
2.066670e-01 0.000000e+00 0.000000e+00
2.133330e-01 0.000000e+00 0.000000e+00
2.200000e-01 0.000000e+00 0.000000e+00
2.266670e-01 0.000000e+00 0.000000e+00
2.333330e-01 0.000000e+00 0.000000e+00
2.400000e-01 0.000000e+00 0.000000e+00
2.466670e-01 0.000000e+00 0.000000e+00
2.533330e-01 0.000000e+00 0.000000e+00
2.600000e-01 0.000000e+00 0.000000e+00
2.666670e-01 0.000000e+00 0.000000e+00
2.733330e-01 0.000000e+00 0.000000e+00
2.800000e-01 0.000000e+00 0.000000e+00
2.866670e-01 0.000000e+00 0.000000e+00
2.933330e-01 0.000000e+00 0.000000e+00
3.000000e-01 0.000000e+00 0.000000e+00
3.066670e-01 0.000000e+00 0.000000e+00
3.133330e-01 0.000000e+00 0.000000e+00
3.200000e-01 0.000000e+00 0.000000e+00
3.266670e-01 0.000000e+00 0.000000e+00
3.333330e-01 0.000000e+00 0.000000e+00
3.400000e-01 0.000000e+00 0.000000e+00
3.466670e-01 0.000000e+00 0.000000e+00
3.533330e-01 0.000000e+00 0.000000e+00
3.600000e-01 0.000000e+00 0.000000e+00
3.666670e-01 0.000000e+00 0.000000e+00
3.733330e-01 0.000000e+00 0.000000e+00
3.800000e-01 0.000000e+00 0.000000e+00
3.866670e-01 0.000000e+00 0.000000e+00
3.933330e-01 0.000000e+00 0.000000e+00
4.000000e-01 0.000000e+00 0.000000e+00
4.066670e-01 0.000000e+00 0.000000e+00
4.133330e-01 0.000000e+00 0.000000e+00
4.200000e-01 0.000000e+00 0.000000e+00
4.266670e-01 0.000000e+00 0.000000e+00
4.333330e-01 0.000000e+00 0.000000e+00
4.400000e-01 0.000000e+00 0.000000e+00
4.466670e-01 0.000000e+00 0.000000e+00
4.533330e-01 0.000000e+00 0.000000e+00
4.600000e-01 0.000000e+00 0.000000e+00
4.666670e-01 0.000000e+00 0.000000e+00
4.733330e-01 0.000000e+00 0.000000e+00
4.800000e-01 0.000000e+00 0.000000e+00
4.866670e-01 0.000000e+00 0.000000e+00
4.933330e-01 0.000000e+00 0.000000e+00
5.000000e-01 0.000000e+00 0.000000e+00
5.066670e-01 0.000000e+00 0.000000e+00
5.133330e-01 0.000000e+00 0.000000e+00
5.200000e-01 0.000000e+00 0.000000e+00
5.266670e-01 0.000000e+00 0.000000e+00
5.333330e-01 0.000000e+00 0.000000e+00
5.400000e-01 0.000000e+00 0.000000e+00
5.466670e-01 0.000000e+00 0.000000e+00
5.533330e-01 0.000000e+00 0.000000e+00
5.600000e-01 0.000000e+00 0.000000e+00
5.666670e-01 0.000000e+00 0.000000e+00
5.733330e-01 0.000000e+00 0.000000e+00
5.800000e-01 0.000000e+00 0.000000e+00
5.866670e-01 0.000000e+00 0.000000e+00
5.933330e-01 0.000000e+00 0.000000e+00
6.000000e-01 0.000000e+00 0.000000e+00
6.066670e-01 0.000000e+00 0.000000e+00
6.133330e-01 0.000000e+00 0.000000e+00
6.200000e-01 0.000000e+00 0.000000e+00
6.266670e-01 0.000000e+00 0.000000e+00
6.333330e-01 0.000000e+00 0.000000e+00
6.400000e-01 0.000000e+00 0.000000e+00
6.466670e-01 0.000000e+00 0.000000e+00
6.533330e-01 0.000000e+00 0.000000e+00
6.600000e-01 0.000000e+00 0.000000e+00
6.666670e-01 0.000000e+00 0.000000e+00
6.733330e-01 0.000000e+00 0.000000e+00
6.800000e-01 0.000000e+00 0.000000e+00
6.866670e-01 0.000000e+00 0.000000e+00
6.933330e-01 0.000000e+00 0.000000e+00
7.000000e-01 0.000000e+00 0.000000e+00
7.066670e-01 0.000000e+00 0.000000e+00
7.133330e-01 0.000000e+00 0.000000e+00
7.200000e-01 0.000000e+00 0.000000e+00
7.266670e-01 0.000000e+00 0.000000e+00
7.333330e-01 0.000000e+00 0.000000e+00
7.400000e-01 0.000000e+00 0.000000e+00
7.466670e-01 0.000000e+00 0.000000e+00
7.533330e-01 0.000000e+00 0.000000e+00
7.600000e-01 0.000000e+00 0.000000e+00
7.666670e-01 0.000000e+00 0.000000e+00
7.733330e-01 0.000000e+00 0.000000e+00
7.800000e-01 0.000000e+00 0.000000e+00
7.866670e-01 0.000000e+00 0.000000e+00
7.933330e-01 0.000000e+00 0.000000e+00
8.000000e-01 0.000000e+00 0.000000e+00
8.066670e-01 0.000000e+00 0.000000e+00
8.133330e-01 0.000000e+00 0.000000e+00
8.200000e-01 0.000000e+00 0.000000e+00
8.266670e-01 0.000000e+00 0.000000e+00
8.333330e-01 0.000000e+00 0.000000e+00
8.400000e-01 0.000000e+00 0.000000e+00
8.466670e-01 0.000000e+00 0.000000e+00
8.533330e-01 0.000000e+00 0.000000e+00
8.600000e-01 0.000000e+00 0.000000e+00
8.666670e-01 0.000000e+00 0.000000e+00
8.733330e-01 0.000000e+00 0.000000e+00
8.800000e-01 0.000000e+00 0.000000e+00
8.866670e-01 0.000000e+00 0.000000e+00
8.933330e-01 0.000000e+00 0.000000e+00
9.000000e-01 0.000000e+00 0.000000e+00
9.066670e-01 0.000000e+00 0.000000e+00
9.133330e-01 0.000000e+00 0.000000e+00
9.200000e-01 0.000000e+00 0.000000e+00
9.266670e-01 0.000000e+00 0.000000e+00
9.333330e-01 0.000000e+00 0.000000e+00
9.400000e-01 0.000000e+00 0.000000e+00
9.466670e-01 0.000000e+00 0.000000e+00
9.533330e-01 0.000000e+00 0.000000e+00
9.600000e-01 0.000000e+00 0.000000e+00
9.666670e-01 0.000000e+00 0.000000e+00
9.733330e-01 0.000000e+00 0.000000e+00
9.800000e-01 0.000000e+00 0.000000e+00
9.866670e-01 0.000000e+00 0.000000e+00
9.933330e-01 0.000000e+00 0.000000e+00
1.000000e+00 0.000000e+00 0.000000e+00
1.006667e+00 0.000000e+00 0.000000e+00
1.013333e+00 0.000000e+00 0.000000e+00
1.020000e+00 0.000000e+00 0.000000e+00
1.026667e+00 0.000000e+00 0.000000e+00
1.033333e+00 0.000000e+00 0.000000e+00
1.040000e+00 0.000000e+00 0.000000e+00
1.046667e+00 0.000000e+00 0.000000e+00
1.053333e+00 0.000000e+00 0.000000e+00
1.060000e+00 0.000000e+00 0.000000e+00
1.066667e+00 0.000000e+00 0.000000e+00
1.073333e+00 0.000000e+00 0.000000e+00
1.080000e+00 0.000000e+00 0.000000e+00
1.086667e+00 0.000000e+00 0.000000e+00
1.093333e+00 0.000000e+00 0.000000e+00
1.100000e+00 0.000000e+00 0.000000e+00
1.106667e+00 0.000000e+00 0.000000e+00
1.113333e+00 0.000000e+00 0.000000e+00
1.120000e+00 0.000000e+00 0.000000e+00
1.126667e+00 0.000000e+00 0.000000e+00
1.133333e+00 0.000000e+00 0.000000e+00
1.140000e+00 0.000000e+00 0.000000e+00
1.146667e+00 0.000000e+00 0.000000e+00
1.153333e+00 0.000000e+00 0.000000e+00
1.160000e+00 0.000000e+00 0.000000e+00
1.166667e+00 0.000000e+00 0.000000e+00
1.173333e+00 0.000000e+00 0.000000e+00
1.180000e+00 0.000000e+00 0.000000e+00
1.186667e+00 0.000000e+00 0.000000e+00
1.193333e+00 0.000000e+00 0.000000e+00
1.200000e+00 0.000000e+00 0.000000e+00
1.206667e+00 0.000000e+00 0.000000e+00
1.213333e+00 0.000000e+00 0.000000e+00
1.220000e+00 0.000000e+00 0.000000e+00
1.226667e+00 0.000000e+00 0.000000e+00
1.233333e+00 0.000000e+00 0.000000e+00
1.240000e+00 0.000000e+00 0.000000e+00
1.246667e+00 0.000000e+00 0.000000e+00
1.253333e+00 0.000000e+00 0.000000e+00
1.260000e+00 0.000000e+00 0.000000e+00
1.266667e+00 0.000000e+00 0.000000e+00
1.273333e+00 0.000000e+00 0.000000e+00
1.280000e+00 0.000000e+00 0.000000e+00
1.286667e+00 0.000000e+00 0.000000e+00
1.293333e+00 0.000000e+00 0.000000e+00
1.300000e+00 0.000000e+00 0.000000e+00
1.306667e+00 0.000000e+00 0.000000e+00
1.313333e+00 0.000000e+00 0.000000e+00
1.320000e+00 0.000000e+00 0.000000e+00
1.326667e+00 0.000000e+00 0.000000e+00
1.333333e+00 0.000000e+00 0.000000e+00
1.340000e+00 0.000000e+00 0.000000e+00
1.346667e+00 0.000000e+00 0.000000e+00
1.353333e+00 0.000000e+00 0.000000e+00
1.360000e+00 0.000000e+00 0.000000e+00
1.366667e+00 0.000000e+00 0.000000e+00
1.373333e+00 0.000000e+00 0.000000e+00
1.380000e+00 0.000000e+00 0.000000e+00
1.386667e+00 0.000000e+00 0.000000e+00
1.393333e+00 0.000000e+00 0.000000e+00
1.400000e+00 0.000000e+00 0.000000e+00
1.406667e+00 0.000000e+00 0.000000e+00
1.413333e+00 0.000000e+00 0.000000e+00
1.420000e+00 0.000000e+00 0.000000e+00
1.426667e+00 0.000000e+00 0.000000e+00
1.433333e+00 0.000000e+00 0.000000e+00
1.440000e+00 0.000000e+00 0.000000e+00
1.446667e+00 0.000000e+00 0.000000e+00
1.453333e+00 0.000000e+00 0.000000e+00
1.460000e+00 0.000000e+00 0.000000e+00
1.466667e+00 0.000000e+00 0.000000e+00
1.473333e+00 0.000000e+00 0.000000e+00
1.480000e+00 0.000000e+00 0.000000e+00
1.486667e+00 0.000000e+00 0.000000e+00
1.493333e+00 0.000000e+00 0.000000e+00
1.500000e+00 0.000000e+00 0.000000e+00
1.506667e+00 0.000000e+00 0.000000e+00
1.513333e+00 0.000000e+00 0.000000e+00
1.520000e+00 0.000000e+00 0.000000e+00
1.526667e+00 0.000000e+00 0.000000e+00
1.533333e+00 0.000000e+00 0.000000e+00
1.540000e+00 0.000000e+00 0.000000e+00
1.546667e+00 0.000000e+00 0.000000e+00
1.553333e+00 0.000000e+00 0.000000e+00
1.560000e+00 0.000000e+00 0.000000e+00
1.566667e+00 0.000000e+00 0.000000e+00
1.573333e+00 0.000000e+00 0.000000e+00
1.580000e+00 0.000000e+00 0.000000e+00
1.586667e+00 0.000000e+00 0.000000e+00
1.593333e+00 0.000000e+00 0.000000e+00
1.600000e+00 0.000000e+00 0.000000e+00
1.606667e+00 0.000000e+00 0.000000e+00
1.613333e+00 0.000000e+00 0.000000e+00
1.620000e+00 0.000000e+00 0.000000e+00
1.626667e+00 0.000000e+00 0.000000e+00
1.633333e+00 0.000000e+00 0.000000e+00
1.640000e+00 0.000000e+00 0.000000e+00
1.646667e+00 0.000000e+00 0.000000e+00
1.653333e+00 0.000000e+00 0.000000e+00
1.660000e+00 0.000000e+00 0.000000e+00
1.666667e+00 0.000000e+00 0.000000e+00
1.673333e+00 0.000000e+00 0.000000e+00
1.680000e+00 0.000000e+00 0.000000e+00
1.686667e+00 0.000000e+00 0.000000e+00
1.693333e+00 0.000000e+00 0.000000e+00
1.700000e+00 0.000000e+00 0.000000e+00
1.706667e+00 0.000000e+00 0.000000e+00
1.713333e+00 0.000000e+00 0.000000e+00
1.720000e+00 0.000000e+00 0.000000e+00
1.726667e+00 0.000000e+00 0.000000e+00
1.733333e+00 0.000000e+00 0.000000e+00
1.740000e+00 0.000000e+00 0.000000e+00
1.746667e+00 0.000000e+00 0.000000e+00
1.753333e+00 0.000000e+00 0.000000e+00
1.760000e+00 0.000000e+00 0.000000e+00
1.766667e+00 0.000000e+00 0.000000e+00
1.773333e+00 0.000000e+00 0.000000e+00
1.780000e+00 0.000000e+00 0.000000e+00
1.786667e+00 0.000000e+00 0.000000e+00
1.793333e+00 0.000000e+00 0.000000e+00
1.800000e+00 0.000000e+00 0.000000e+00
1.806667e+00 0.000000e+00 0.000000e+00
1.813333e+00 0.000000e+00 0.000000e+00
1.820000e+00 0.000000e+00 0.000000e+00
1.826667e+00 0.000000e+00 0.000000e+00
1.833333e+00 0.000000e+00 0.000000e+00
1.840000e+00 0.000000e+00 0.000000e+00
1.846667e+00 0.000000e+00 0.000000e+00
1.853333e+00 0.000000e+00 0.000000e+00
1.860000e+00 0.000000e+00 0.000000e+00
1.866667e+00 0.000000e+00 0.000000e+00
1.873333e+00 0.000000e+00 0.000000e+00
1.880000e+00 0.000000e+00 0.000000e+00
1.886667e+00 0.000000e+00 0.000000e+00
1.893333e+00 0.000000e+00 0.000000e+00
1.900000e+00 0.000000e+00 0.000000e+00
1.906667e+00 0.000000e+00 0.000000e+00
1.913333e+00 0.000000e+00 0.000000e+00
1.920000e+00 0.000000e+00 0.000000e+00
1.926667e+00 0.000000e+00 0.000000e+00
1.933333e+00 0.000000e+00 0.000000e+00
1.940000e+00 0.000000e+00 0.000000e+00
1.946667e+00 0.000000e+00 0.000000e+00
1.953333e+00 0.000000e+00 0.000000e+00
1.960000e+00 0.000000e+00 0.000000e+00
1.966667e+00 0.000000e+00 0.000000e+00
1.973333e+00 0.000000e+00 0.000000e+00
1.980000e+00 0.000000e+00 0.000000e+00
1.986667e+00 0.000000e+00 0.000000e+00
1.993333e+00 0.000000e+00 0.000000e+00
2.000000e+00 0.000000e+00 0.000000e+00
LINES 301 900
2 0 1
2 1 2
2 2 3
2 3 4
2 4 5
2 5 6
2 6 7
2 7 8
2 8 9
2 9 10
2 10 11
2 11 12
2 12 13
2 13 14
2 14 15
2 15 16
2 16 17
2 17 18
2 18 19
2 19 20
2 20 21
2 21 22
2 22 23
2 23 24
2 24 25
2 25 26
2 26 27
2 27 28
2 28 29
2 29 30
2 30 31
2 31 32
2 32 33
2 33 34
2 34 35
2 35 36
2 36 37
2 37 38
2 38 39
2 39 40
2 40 41
2 41 42
2 42 43
2 43 44
2 44 45
2 45 46
2 46 47
2 47 48
2 48 49
2 49 50
2 50 51
2 51 52
2 52 53
2 53 54
2 54 55
2 55 56
2 56 57
2 57 58
2 58 59
2 59 60
2 60 61
2 61 62
2 62 63
2 63 64
2 64 65
2 65 66
2 66 67
2 67 68
2 68 69
2 69 70
2 70 71
2 71 72
2 72 73
2 73 74
2 74 75
2 75 76
2 76 77
2 77 78
2 78 79
2 79 80
2 80 81
2 81 82
2 82 83
2 83 84
2 84 85
2 85 86
2 86 87
2 87 88
2 88 89
2 89 90
2 90 91
2 91 92
2 92 93
2 93 94
2 94 95
2 95 96
2 96 97
2 97 98
2 98 99
2 99 100
2 100 101
2 101 102
2 102 103
2 103 104
2 104 105
2 105 106
2 106 107
2 107 108
2 108 109
2 109 110
2 110 111
2 111 112
2 112 113
2 113 114
2 114 115
2 115 116
2 116 117
2 117 118
2 118 119
2 119 120
2 120 121
2 121 122
2 122 123
2 123 124
2 124 125
2 125 126
2 126 127
2 127 128
2 128 129
2 129 130
2 130 131
2 131 132
2 132 133
2 133 134
2 134 135
2 135 136
2 136 137
2 137 138
2 138 139
2 139 140
2 140 141
2 141 142
2 142 143
2 143 144
2 144 145
2 145 146
2 146 147
2 147 148
2 148 149
2 149 150
2 150 151
2 151 152
2 152 153
2 153 154
2 154 155
2 155 156
2 156 157
2 157 158
2 158 159
2 159 160
2 160 161
2 161 162
2 162 163
2 163 164
2 164 165
2 165 166
2 166 167
2 167 168
2 168 169
2 169 170
2 170 171
2 171 172
2 172 173
2 173 174
2 174 175
2 175 176
2 176 177
2 177 178
2 178 179
2 179 180
2 180 181
2 181 182
2 182 183
2 183 184
2 184 185
2 185 186
2 186 187
2 187 188
2 188 189
2 189 190
2 190 191
2 191 192
2 192 193
2 193 194
2 194 195
2 195 196
2 196 197
2 197 198
2 198 199
2 199 200
2 200 201
2 201 202
2 202 203
2 203 204
2 204 205
2 205 206
2 206 207
2 207 208
2 208 209
2 209 210
2 210 211
2 211 212
2 212 213
2 213 214
2 214 215
2 215 216
2 216 217
2 217 218
2 218 219
2 219 220
2 220 221
2 221 222
2 222 223
2 223 224
2 224 225
2 225 226
2 226 227
2 227 228
2 228 229
2 229 230
2 230 231
2 231 232
2 232 233
2 233 234
2 234 235
2 235 236
2 236 237
2 237 238
2 238 239
2 239 240
2 240 241
2 241 242
2 242 243
2 243 244
2 244 245
2 245 246
2 246 247
2 247 248
2 248 249
2 249 250
2 250 251
2 251 252
2 252 253
2 253 254
2 254 255
2 255 256
2 256 257
2 257 258
2 258 259
2 259 260
2 260 261
2 261 262
2 262 263
2 263 264
2 264 265
2 265 266
2 266 267
2 267 268
2 268 269
2 269 270
2 270 271
2 271 272
2 272 273
2 273 274
2 274 275
2 275 276
2 276 277
2 277 278
2 278 279
2 279 280
2 280 281
2 281 282
2 282 283
2 283 284
2 284 285
2 285 286
2 286 287
2 287 288
2 288 289
2 289 290
2 290 291
2 291 292
2 292 293
2 293 294
2 294 295
2 295 296
2 296 297
2 297 298
2 298 299
2 299 300
POINT_DATA 301
SCALARS vm float 1
LOOKUP_TABLE default
-2.957360e+00
-2.957298e+00
-2.957111e+00
-2.956800e+00
-2.956366e+00
-2.955812e+00
-2.954690e+00
-2.953969e+00
-2.953161e+00
-2.952267e+00
-2.951288e+00
-2.950225e+00
-2.949080e+00
-2.947853e+00
-2.946547e+00
-2.945161e+00
-2.943698e+00
-2.942158e+00
-2.940542e+00
-2.938851e+00
-2.937087e+00
-2.935249e+00
-2.933341e+00
-2.931361e+00
-2.929311e+00
-2.927193e+00
-2.925007e+00
-2.922753e+00
-2.920433e+00
-2.918048e+00
-2.915598e+00
-2.913085e+00
-2.910509e+00
-2.907871e+00
-2.905172e+00
-2.902412e+00
-2.899593e+00
-2.896714e+00
-2.893778e+00
-2.890785e+00
-2.887735e+00
-2.884629e+00
-2.881468e+00
-2.878253e+00
-2.874984e+00
-2.871662e+00
-2.868288e+00
-2.864863e+00
-2.861386e+00
-2.857860e+00
-2.854284e+00
-2.850659e+00
-2.846985e+00
-2.843265e+00
-2.839497e+00
-2.835683e+00
-2.831823e+00
-2.827918e+00
-2.823969e+00
-2.819976e+00
-2.815939e+00
-2.811860e+00
-2.807739e+00
-2.803576e+00
-2.799372e+00
-2.795128e+00
-2.790844e+00
-2.786521e+00
-2.782159e+00
-2.777759e+00
-2.773321e+00
-2.768846e+00
-2.764335e+00
-2.759787e+00
-2.755204e+00
-2.750586e+00
-2.745933e+00
-2.741247e+00
-2.736527e+00
-2.731774e+00
-2.726989e+00
-2.722171e+00
-2.717322e+00
-2.712443e+00
-2.707532e+00
-2.702592e+00
-2.697622e+00
-2.692623e+00
-2.687596e+00
-2.682540e+00
-2.677457e+00
-2.672347e+00
-2.667210e+00
-2.662047e+00
-2.656858e+00
-2.651644e+00
-2.646404e+00
-2.641141e+00
-2.635854e+00
-2.630543e+00
-2.625209e+00
-2.619852e+00
-2.614474e+00
-2.609073e+00
-2.603652e+00
-2.598210e+00
-2.592747e+00
-2.587264e+00
-2.581762e+00
-2.576241e+00
-2.570702e+00
-2.565144e+00
-2.559568e+00
-2.553975e+00
-2.548366e+00
-2.542740e+00
-2.537098e+00
-2.531440e+00
-2.525767e+00
-2.520080e+00
-2.514378e+00
-2.508663e+00
-2.502934e+00
-2.497192e+00
-2.491438e+00
-2.485671e+00
-2.479893e+00
-2.474104e+00
-2.468304e+00
-2.462493e+00
-2.456673e+00
-2.450843e+00
-2.445004e+00
-2.439156e+00
-2.433300e+00
-2.427436e+00
-2.421565e+00
-2.415687e+00
-2.409802e+00
-2.403911e+00
-2.398015e+00
-2.392113e+00
-2.386207e+00
-2.380296e+00
-2.374382e+00
-2.368463e+00
-2.362542e+00
-2.356618e+00
-2.350692e+00
-2.344764e+00
-2.338835e+00
-2.332905e+00
-2.326975e+00
-2.321045e+00
-2.315115e+00
-2.309185e+00
-2.303258e+00
-2.297332e+00
-2.291408e+00
-2.285487e+00
-2.279569e+00
-2.273654e+00
-2.267743e+00
-2.261837e+00
-2.255936e+00
-2.250040e+00
-2.244150e+00
-2.238266e+00
-2.232389e+00
-2.226519e+00
-2.220657e+00
-2.214802e+00
-2.208957e+00
-2.203120e+00
-2.197292e+00
-2.191475e+00
-2.185668e+00
-2.179871e+00
-2.174086e+00
-2.168313e+00
-2.162552e+00
-2.156804e+00
-2.151069e+00
-2.145348e+00
-2.139640e+00
-2.133948e+00
-2.128270e+00
-2.122608e+00
-2.116962e+00
-2.111333e+00
-2.105721e+00
-2.100126e+00
-2.094549e+00
-2.088991e+00
-2.083452e+00
-2.077933e+00
-2.072433e+00
-2.066954e+00
-2.061496e+00
-2.056059e+00
-2.050645e+00
-2.045253e+00
-2.039884e+00
-2.034539e+00
-2.029218e+00
-2.023921e+00
-2.018650e+00
-2.013405e+00
-2.008185e+00
-2.002993e+00
-1.997827e+00
-1.992690e+00
-1.987581e+00
-1.982500e+00
-1.977450e+00
-1.972429e+00
-1.967439e+00
-1.962480e+00
-1.957553e+00
-1.952658e+00
-1.947795e+00
-1.942967e+00
-1.938172e+00
-1.933412e+00
-1.928687e+00
-1.923997e+00
-1.919345e+00
-1.914729e+00
-1.910150e+00
-1.905610e+00
-1.901108e+00
-1.896646e+00
-1.892224e+00
-1.887842e+00
-1.883502e+00
-1.879203e+00
-1.874947e+00
-1.870735e+00
-1.866566e+00
-1.862441e+00
-1.858361e+00
-1.854328e+00
-1.850341e+00
-1.846400e+00
-1.842508e+00
-1.838664e+00
-1.834870e+00
-1.831125e+00
-1.827431e+00
-1.823788e+00
-1.820197e+00
-1.816659e+00
-1.813174e+00
-1.809743e+00
-1.806368e+00
-1.803048e+00
-1.799784e+00
-1.796578e+00
-1.793430e+00
-1.790340e+00
-1.787310e+00
-1.784340e+00
-1.781431e+00
-1.778584e+00
-1.775800e+00
-1.773079e+00
-1.770422e+00
-1.767831e+00
-1.765305e+00
-1.762846e+00
-1.760455e+00
-1.758132e+00
-1.755878e+00
-1.753694e+00
-1.751582e+00
-1.749540e+00
-1.747572e+00
-1.745676e+00
-1.743855e+00
-1.742109e+00
-1.740438e+00
-1.738843e+00
-1.737326e+00
-1.735887e+00
-1.734526e+00
-1.733244e+00
-1.732042e+00
-1.730921e+00
-1.729880e+00
-1.728921e+00
-1.728044e+00
-1.727249e+00
-1.726536e+00
-1.725907e+00
-1.725361e+00
-1.724898e+00
-1.724520e+00
-1.724225e+00
-1.724014e+00
-1.723888e+00
-1.723846e+00
