# vtk DataFile Version 3.0
Monodomain FEM
ASCII
DATASET POLYDATA
POINTS 601 float
0.000000e+00 0.000000e+00 0.000000e+00
6.667000e-03 0.000000e+00 0.000000e+00
1.333300e-02 0.000000e+00 0.000000e+00
2.000000e-02 0.000000e+00 0.000000e+00
2.666700e-02 0.000000e+00 0.000000e+00
3.333300e-02 0.000000e+00 0.000000e+00
4.000000e-02 0.000000e+00 0.000000e+00
4.666700e-02 0.000000e+00 0.000000e+00
5.333300e-02 0.000000e+00 0.000000e+00
6.000000e-02 0.000000e+00 0.000000e+00
6.666700e-02 0.000000e+00 0.000000e+00
7.333300e-02 0.000000e+00 0.000000e+00
8.000000e-02 0.000000e+00 0.000000e+00
8.666700e-02 0.000000e+00 0.000000e+00
9.333300e-02 0.000000e+00 0.000000e+00
1.000000e-01 0.000000e+00 0.000000e+00
1.066670e-01 0.000000e+00 0.000000e+00
1.133330e-01 0.000000e+00 0.000000e+00
1.200000e-01 0.000000e+00 0.000000e+00
1.266670e-01 0.000000e+00 0.000000e+00
1.333330e-01 0.000000e+00 0.000000e+00
1.400000e-01 0.000000e+00 0.000000e+00
1.466670e-01 0.000000e+00 0.000000e+00
1.533330e-01 0.000000e+00 0.000000e+00
1.600000e-01 0.000000e+00 0.000000e+00
1.666670e-01 0.000000e+00 0.000000e+00
1.733330e-01 0.000000e+00 0.000000e+00
1.800000e-01 0.000000e+00 0.000000e+00
1.866670e-01 0.000000e+00 0.000000e+00
1.933330e-01 0.000000e+00 0.000000e+00
2.000000e-01 0.000000e+00 0.000000e+00
2.066670e-01 0.000000e+00 0.000000e+00
2.133330e-01 0.000000e+00 0.000000e+00
2.200000e-01 0.000000e+00 0.000000e+00
2.266670e-01 0.000000e+00 0.000000e+00
2.333330e-01 0.000000e+00 0.000000e+00
2.400000e-01 0.000000e+00 0.000000e+00
2.466670e-01 0.000000e+00 0.000000e+00
2.533330e-01 0.000000e+00 0.000000e+00
2.600000e-01 0.000000e+00 0.000000e+00
2.666670e-01 0.000000e+00 0.000000e+00
2.733330e-01 0.000000e+00 0.000000e+00
2.800000e-01 0.000000e+00 0.000000e+00
2.866670e-01 0.000000e+00 0.000000e+00
2.933330e-01 0.000000e+00 0.000000e+00
3.000000e-01 0.000000e+00 0.000000e+00
3.066670e-01 0.000000e+00 0.000000e+00
3.133330e-01 0.000000e+00 0.000000e+00
3.200000e-01 0.000000e+00 0.000000e+00
3.266670e-01 0.000000e+00 0.000000e+00
3.333330e-01 0.000000e+00 0.000000e+00
3.400000e-01 0.000000e+00 0.000000e+00
3.466670e-01 0.000000e+00 0.000000e+00
3.533330e-01 0.000000e+00 0.000000e+00
3.600000e-01 0.000000e+00 0.000000e+00
3.666670e-01 0.000000e+00 0.000000e+00
3.733330e-01 0.000000e+00 0.000000e+00
3.800000e-01 0.000000e+00 0.000000e+00
3.866670e-01 0.000000e+00 0.000000e+00
3.933330e-01 0.000000e+00 0.000000e+00
4.000000e-01 0.000000e+00 0.000000e+00
4.066670e-01 0.000000e+00 0.000000e+00
4.133330e-01 0.000000e+00 0.000000e+00
4.200000e-01 0.000000e+00 0.000000e+00
4.266670e-01 0.000000e+00 0.000000e+00
4.333330e-01 0.000000e+00 0.000000e+00
4.400000e-01 0.000000e+00 0.000000e+00
4.466670e-01 0.000000e+00 0.000000e+00
4.533330e-01 0.000000e+00 0.000000e+00
4.600000e-01 0.000000e+00 0.000000e+00
4.666670e-01 0.000000e+00 0.000000e+00
4.733330e-01 0.000000e+00 0.000000e+00
4.800000e-01 0.000000e+00 0.000000e+00
4.866670e-01 0.000000e+00 0.000000e+00
4.933330e-01 0.000000e+00 0.000000e+00
5.000000e-01 0.000000e+00 0.000000e+00
5.066670e-01 0.000000e+00 0.000000e+00
5.133330e-01 0.000000e+00 0.000000e+00
5.200000e-01 0.000000e+00 0.000000e+00
5.266670e-01 0.000000e+00 0.000000e+00
5.333330e-01 0.000000e+00 0.000000e+00
5.400000e-01 0.000000e+00 0.000000e+00
5.466670e-01 0.000000e+00 0.000000e+00
5.533330e-01 0.000000e+00 0.000000e+00
5.600000e-01 0.000000e+00 0.000000e+00
5.666670e-01 0.000000e+00 0.000000e+00
5.733330e-01 0.000000e+00 0.000000e+00
5.800000e-01 0.000000e+00 0.000000e+00
5.866670e-01 0.000000e+00 0.000000e+00
5.933330e-01 0.000000e+00 0.000000e+00
6.000000e-01 0.000000e+00 0.000000e+00
6.066670e-01 0.000000e+00 0.000000e+00
6.133330e-01 0.000000e+00 0.000000e+00
6.200000e-01 0.000000e+00 0.000000e+00
6.266670e-01 0.000000e+00 0.000000e+00
6.333330e-01 0.000000e+00 0.000000e+00
6.400000e-01 0.000000e+00 0.000000e+00
6.466670e-01 0.000000e+00 0.000000e+00
6.533330e-01 0.000000e+00 0.000000e+00
6.600000e-01 0.000000e+00 0.000000e+00
6.666670e-01 0.000000e+00 0.000000e+00
6.733330e-01 0.000000e+00 0.000000e+00
6.800000e-01 0.000000e+00 0.000000e+00
6.866670e-01 0.000000e+00 0.000000e+00
6.933330e-01 0.000000e+00 0.000000e+00
7.000000e-01 0.000000e+00 0.000000e+00
7.066670e-01 0.000000e+00 0.000000e+00
7.133330e-01 0.000000e+00 0.000000e+00
7.200000e-01 0.000000e+00 0.000000e+00
7.266670e-01 0.000000e+00 0.000000e+00
7.333330e-01 0.000000e+00 0.000000e+00
7.400000e-01 0.000000e+00 0.000000e+00
7.466670e-01 0.000000e+00 0.000000e+00
7.533330e-01 0.000000e+00 0.000000e+00
7.600000e-01 0.000000e+00 0.000000e+00
7.666670e-01 0.000000e+00 0.000000e+00
7.733330e-01 0.000000e+00 0.000000e+00
7.800000e-01 0.000000e+00 0.000000e+00
7.866670e-01 0.000000e+00 0.000000e+00
7.933330e-01 0.000000e+00 0.000000e+00
8.000000e-01 0.000000e+00 0.000000e+00
8.066670e-01 0.000000e+00 0.000000e+00
8.133330e-01 0.000000e+00 0.000000e+00
8.200000e-01 0.000000e+00 0.000000e+00
8.266670e-01 0.000000e+00 0.000000e+00
8.333330e-01 0.000000e+00 0.000000e+00
8.400000e-01 0.000000e+00 0.000000e+00
8.466670e-01 0.000000e+00 0.000000e+00
8.533330e-01 0.000000e+00 0.000000e+00
8.600000e-01 0.000000e+00 0.000000e+00
8.666670e-01 0.000000e+00 0.000000e+00
8.733330e-01 0.000000e+00 0.000000e+00
8.800000e-01 0.000000e+00 0.000000e+00
8.866670e-01 0.000000e+00 0.000000e+00
8.933330e-01 0.000000e+00 0.000000e+00
9.000000e-01 0.000000e+00 0.000000e+00
9.066670e-01 0.000000e+00 0.000000e+00
9.133330e-01 0.000000e+00 0.000000e+00
9.200000e-01 0.000000e+00 0.000000e+00
9.266670e-01 0.000000e+00 0.000000e+00
9.333330e-01 0.000000e+00 0.000000e+00
9.400000e-01 0.000000e+00 0.000000e+00
9.466670e-01 0.000000e+00 0.000000e+00
9.533330e-01 0.000000e+00 0.000000e+00
9.600000e-01 0.000000e+00 0.000000e+00
9.666670e-01 0.000000e+00 0.000000e+00
9.733330e-01 0.000000e+00 0.000000e+00
9.800000e-01 0.000000e+00 0.000000e+00
9.866670e-01 0.000000e+00 0.000000e+00
9.933330e-01 0.000000e+00 0.000000e+00
1.000000e+00 0.000000e+00 0.000000e+00
1.006667e+00 0.000000e+00 0.000000e+00
1.013333e+00 0.000000e+00 0.000000e+00
1.020000e+00 0.000000e+00 0.000000e+00
1.026667e+00 0.000000e+00 0.000000e+00
1.033333e+00 0.000000e+00 0.000000e+00
1.040000e+00 0.000000e+00 0.000000e+00
1.046667e+00 0.000000e+00 0.000000e+00
1.053333e+00 0.000000e+00 0.000000e+00
1.060000e+00 0.000000e+00 0.000000e+00
1.066667e+00 0.000000e+00 0.000000e+00
1.073333e+00 0.000000e+00 0.000000e+00
1.080000e+00 0.000000e+00 0.000000e+00
1.086667e+00 0.000000e+00 0.000000e+00
1.093333e+00 0.000000e+00 0.000000e+00
1.100000e+00 0.000000e+00 0.000000e+00
1.106667e+00 0.000000e+00 0.000000e+00
1.113333e+00 0.000000e+00 0.000000e+00
1.120000e+00 0.000000e+00 0.000000e+00
1.126667e+00 0.000000e+00 0.000000e+00
1.133333e+00 0.000000e+00 0.000000e+00
1.140000e+00 0.000000e+00 0.000000e+00
1.146667e+00 0.000000e+00 0.000000e+00
1.153333e+00 0.000000e+00 0.000000e+00
1.160000e+00 0.000000e+00 0.000000e+00
1.166667e+00 0.000000e+00 0.000000e+00
1.173333e+00 0.000000e+00 0.000000e+00
1.180000e+00 0.000000e+00 0.000000e+00
1.186667e+00 0.000000e+00 0.000000e+00
1.193333e+00 0.000000e+00 0.000000e+00
1.200000e+00 0.000000e+00 0.000000e+00
1.206667e+00 0.000000e+00 0.000000e+00
1.213333e+00 0.000000e+00 0.000000e+00
1.220000e+00 0.000000e+00 0.000000e+00
1.226667e+00 0.000000e+00 0.000000e+00
1.233333e+00 0.000000e+00 0.000000e+00
1.240000e+00 0.000000e+00 0.000000e+00
1.246667e+00 0.000000e+00 0.000000e+00
1.253333e+00 0.000000e+00 0.000000e+00
1.260000e+00 0.000000e+00 0.000000e+00
1.266667e+00 0.000000e+00 0.000000e+00
1.273333e+00 0.000000e+00 0.000000e+00
1.280000e+00 0.000000e+00 0.000000e+00
1.286667e+00 0.000000e+00 0.000000e+00
1.293333e+00 0.000000e+00 0.000000e+00
1.300000e+00 0.000000e+00 0.000000e+00
1.306667e+00 0.000000e+00 0.000000e+00
1.313333e+00 0.000000e+00 0.000000e+00
1.320000e+00 0.000000e+00 0.000000e+00
1.326667e+00 0.000000e+00 0.000000e+00
1.333333e+00 0.000000e+00 0.000000e+00
1.340000e+00 0.000000e+00 0.000000e+00
1.346667e+00 0.000000e+00 0.000000e+00
1.353333e+00 0.000000e+00 0.000000e+00
1.360000e+00 0.000000e+00 0.000000e+00
1.366667e+00 0.000000e+00 0.000000e+00
1.373333e+00 0.000000e+00 0.000000e+00
1.380000e+00 0.000000e+00 0.000000e+00
1.386667e+00 0.000000e+00 0.000000e+00
1.393333e+00 0.000000e+00 0.000000e+00
1.400000e+00 0.000000e+00 0.000000e+00
1.406667e+00 0.000000e+00 0.000000e+00
1.413333e+00 0.000000e+00 0.000000e+00
1.420000e+00 0.000000e+00 0.000000e+00
1.426667e+00 0.000000e+00 0.000000e+00
1.433333e+00 0.000000e+00 0.000000e+00
1.440000e+00 0.000000e+00 0.000000e+00
1.446667e+00 0.000000e+00 0.000000e+00
1.453333e+00 0.000000e+00 0.000000e+00
1.460000e+00 0.000000e+00 0.000000e+00
1.466667e+00 0.000000e+00 0.000000e+00
1.473333e+00 0.000000e+00 0.000000e+00
1.480000e+00 0.000000e+00 0.000000e+00
1.486667e+00 0.000000e+00 0.000000e+00
1.493333e+00 0.000000e+00 0.000000e+00
1.500000e+00 0.000000e+00 0.000000e+00
1.506667e+00 0.000000e+00 0.000000e+00
1.513333e+00 0.000000e+00 0.000000e+00
1.520000e+00 0.000000e+00 0.000000e+00
1.526667e+00 0.000000e+00 0.000000e+00
1.533333e+00 0.000000e+00 0.000000e+00
1.540000e+00 0.000000e+00 0.000000e+00
1.546667e+00 0.000000e+00 0.000000e+00
1.553333e+00 0.000000e+00 0.000000e+00
1.560000e+00 0.000000e+00 0.000000e+00
1.566667e+00 0.000000e+00 0.000000e+00
1.573333e+00 0.000000e+00 0.000000e+00
1.580000e+00 0.000000e+00 0.000000e+00
1.586667e+00 0.000000e+00 0.000000e+00
1.593333e+00 0.000000e+00 0.000000e+00
1.600000e+00 0.000000e+00 0.000000e+00
1.606667e+00 0.000000e+00 0.000000e+00
1.613333e+00 0.000000e+00 0.000000e+00
1.620000e+00 0.000000e+00 0.000000e+00
1.626667e+00 0.000000e+00 0.000000e+00
1.633333e+00 0.000000e+00 0.000000e+00
1.640000e+00 0.000000e+00 0.000000e+00
1.646667e+00 0.000000e+00 0.000000e+00
1.653333e+00 0.000000e+00 0.000000e+00
1.660000e+00 0.000000e+00 0.000000e+00
1.666667e+00 0.000000e+00 0.000000e+00
1.673333e+00 0.000000e+00 0.000000e+00
1.680000e+00 0.000000e+00 0.000000e+00
1.686667e+00 0.000000e+00 0.000000e+00
[...]
POINT_DATA 601
SCALARS vm float 1
LOOKUP_TABLE default
-7.089192e+00
-7.089140e+00
-7.088985e+00
-7.088726e+00
-7.088365e+00
-7.087906e+00
-7.086892e+00
-7.086312e+00
-7.085667e+00
-7.084958e+00
-7.084187e+00
-7.083354e+00
-7.082462e+00
-7.081511e+00
-7.080502e+00
-7.079436e+00
-7.078315e+00
-7.077139e+00
-7.075909e+00
-7.074627e+00
-7.073294e+00
-7.071910e+00
-7.070476e+00
-7.068993e+00
-7.067462e+00
-7.065884e+00
-7.064259e+00
-7.062589e+00
-7.060874e+00
-7.059116e+00
-7.057313e+00
-7.055468e+00
-7.053582e+00
-7.051654e+00
-7.049685e+00
-7.047677e+00
-7.045629e+00
-7.043543e+00
-7.041418e+00
-7.039256e+00
-7.037057e+00
-7.034822e+00
-7.032551e+00
-7.030245e+00
-7.027904e+00
-7.025528e+00
-7.023119e+00
-7.020676e+00
-7.018201e+00
-7.015693e+00
-7.013152e+00
-7.010580e+00
-7.007977e+00
-7.005343e+00
-7.002678e+00
-6.999983e+00
-6.997258e+00
-6.994503e+00
-6.991719e+00
-6.988906e+00
-6.986064e+00
-6.983193e+00
-6.980295e+00
-6.977368e+00
-6.974413e+00
-6.971431e+00
-6.968422e+00
-6.965385e+00
-6.962321e+00
-6.959230e+00
-6.956112e+00
-6.952968e+00
-6.949797e+00
-6.946600e+00
-6.943376e+00
-6.940127e+00
-6.936851e+00
-6.933548e+00
-6.930220e+00
-6.926866e+00
-6.923485e+00
-6.920079e+00
-6.916647e+00
-6.913188e+00
-6.909704e+00
-6.906193e+00
-6.902656e+00
-6.899093e+00
-6.895504e+00
-6.891888e+00
-6.888246e+00
-6.884577e+00
-6.880882e+00
-6.877160e+00
-6.873410e+00
-6.869634e+00
-6.865830e+00
-6.861999e+00
-6.858140e+00
-6.854254e+00
-6.850339e+00
-6.846396e+00
-6.842425e+00
-6.838425e+00
-6.834396e+00
-6.830337e+00
-6.826249e+00
-6.822132e+00
-6.817984e+00
-6.813806e+00
-6.809597e+00
-6.805357e+00
-6.801086e+00
-6.796783e+00
-6.792448e+00
-6.788080e+00
-6.783680e+00
-6.779247e+00
-6.774780e+00
-6.770279e+00
-6.765743e+00
-6.761173e+00
-6.756568e+00
-6.751927e+00
-6.747250e+00
-6.742537e+00
-6.737786e+00
-6.732999e+00
-6.728173e+00
-6.723309e+00
-6.718406e+00
-6.713464e+00
-6.708482e+00
-6.703459e+00
-6.698396e+00
-6.693291e+00
-6.688144e+00
-6.682955e+00
-6.677722e+00
-6.672446e+00
-6.667125e+00
-6.661758e+00
-6.656345e+00
-6.650884e+00
-6.645375e+00
-6.639815e+00
-6.634204e+00
-6.628538e+00
-6.622810e+00
-6.616972e+00
-6.610743e+00
-6.607986e+00
-6.605864e+00
-6.603830e+00
-6.601791e+00
-6.599732e+00
-6.597651e+00
-6.595547e+00
-6.593423e+00
-6.591277e+00
-6.589111e+00
-6.586926e+00
-6.584721e+00
-6.582498e+00
-6.580257e+00
-6.577998e+00
-6.575723e+00
-6.573430e+00
-6.571122e+00
-6.568798e+00
-6.566459e+00
-6.564106e+00
-6.561738e+00
-6.559357e+00
-6.556962e+00
-6.554555e+00
-6.552136e+00
-6.549705e+00
-6.547263e+00
-6.544810e+00
-6.542346e+00
-6.539873e+00
-6.537390e+00
-6.534898e+00
-6.532398e+00
-6.529889e+00
-6.527373e+00
-6.524850e+00
-6.522320e+00
-6.519783e+00
-6.517241e+00
-6.514693e+00
-6.512140e+00
-6.509582e+00
-6.507021e+00
-6.504455e+00
-6.501886e+00
-6.499315e+00
-6.496741e+00
-6.494164e+00
-6.491587e+00
-6.489008e+00
-6.486428e+00
-6.483848e+00
-6.481268e+00
-6.478689e+00
-6.476110e+00
-6.473533e+00
-6.470958e+00
-6.468385e+00
-6.465814e+00
-6.463247e+00
-6.460684e+00
-6.458124e+00
-6.455569e+00
-6.453019e+00
-6.450474e+00
-6.447935e+00
-6.445402e+00
-6.442875e+00
-6.440356e+00
-6.437845e+00
-6.435341e+00
-6.432846e+00
-6.430361e+00
-6.427884e+00
-6.425418e+00
-6.422962e+00
-6.420517e+00
-6.418083e+00
-6.415661e+00
-6.413252e+00
-6.410856e+00
-6.408473e+00
-6.406104e+00
-6.403750e+00
-6.401410e+00
-6.399087e+00
-6.396779e+00
-6.394488e+00
-6.392214e+00
-6.389958e+00
-6.387720e+00
-6.385501e+00
-6.383302e+00
-6.381122e+00
-6.378964e+00
-6.376826e+00
-6.374711e+00
-6.372618e+00
-6.370548e+00
-6.368502e+00
-6.366480e+00
-6.364484e+00
-6.362513e+00
-6.360568e+00
-6.358651e+00
-6.356761e+00
-6.354900e+00
-6.353068e+00
-6.351265e+00
-6.349494e+00
-6.347753e+00
-6.346045e+00
-6.344369e+00
-6.342727e+00
-6.341120e+00
-6.339547e+00
-6.338010e+00
-6.336510e+00
-6.335047e+00
-6.333622e+00
-6.332236e+00
-6.330890e+00
-6.329585e+00
-6.328321e+00
-6.327099e+00
-6.325920e+00
-6.324785e+00
-6.323694e+00
-6.322648e+00
-6.321649e+00
-6.320696e+00
-6.319790e+00
-6.318933e+00
-6.318124e+00
-6.317365e+00
-6.316655e+00
-6.315996e+00
-6.315388e+00
-6.314831e+00
-6.314326e+00
-6.313873e+00
-6.313472e+00
-6.313125e+00
-6.312830e+00
-6.312589e+00
-6.312401e+00
-6.312267e+00
-6.312186e+00
-6.312159e+00
-6.607986e+00
-6.605864e+00
-6.603830e+00
-6.601791e+00
-6.599732e+00
-6.597651e+00
-6.595547e+00
-6.593423e+00
-6.591277e+00
-6.589111e+00
-6.586926e+00
-6.584721e+00
-6.582498e+00
-6.580257e+00
-6.577998e+00
-6.575723e+00
-6.573430e+00
-6.571122e+00
-6.568798e+00
-6.566459e+00
-6.564106e+00
-6.561738e+00
-6.559357e+00
-6.556962e+00
-6.554555e+00
-6.552136e+00
-6.549705e+00
-6.547263e+00
-6.544810e+00
-6.542346e+00
-6.539873e+00
-6.537390e+00
-6.534898e+00
-6.532398e+00
-6.529889e+00
-6.527373e+00
-6.524850e+00
-6.522320e+00
-6.519783e+00
-6.517241e+00
-6.514693e+00
-6.512140e+00
-6.509582e+00
-6.507021e+00
-6.504455e+00
-6.501886e+00
-6.499315e+00
-6.496741e+00
-6.494164e+00
-6.491587e+00
-6.489008e+00
-6.486428e+00
-6.483848e+00
-6.481268e+00
-6.478689e+00
-6.476110e+00
-6.473533e+00
-6.470958e+00
-6.468385e+00
-6.465814e+00
-6.463247e+00
-6.460684e+00
-6.458124e+00
-6.455569e+00
-6.453019e+00
-6.450474e+00
-6.447935e+00
-6.445402e+00
-6.442875e+00
-6.440356e+00
-6.437845e+00
-6.435341e+00
-6.432846e+00
-6.430361e+00
-6.427884e+00
-6.425418e+00
-6.422962e+00
-6.420517e+00
-6.418083e+00
-6.415661e+00
-6.413252e+00
-6.410856e+00
-6.408473e+00
-6.406104e+00
-6.403750e+00
-6.401410e+00
-6.399087e+00
-6.396779e+00
-6.394488e+00
-6.392214e+00
-6.389958e+00
-6.387720e+00
-6.385501e+00
-6.383302e+00
-6.381122e+00
-6.378964e+00
-6.376826e+00
-6.374711e+00
-6.372618e+00
-6.370548e+00
-6.368502e+00
-6.366480e+00
-6.364484e+00
-6.362513e+00
-6.360568e+00
-6.358651e+00
-6.356761e+00
-6.354900e+00
-6.353068e+00
-6.351265e+00
-6.349494e+00
-6.347753e+00
-6.346045e+00
-6.344369e+00
-6.342727e+00
-6.341120e+00
-6.339547e+00
-6.338010e+00
-6.336510e+00
-6.335047e+00
-6.333622e+00
-6.332236e+00
-6.330890e+00
-6.329585e+00
-6.328321e+00
-6.327099e+00
-6.325920e+00
-6.324785e+00
-6.323694e+00
-6.322648e+00
-6.321649e+00
-6.320696e+00
-6.319790e+00
-6.318933e+00
-6.318124e+00
-6.317365e+00
-6.316655e+00
-6.315996e+00
-6.315388e+00
-6.314831e+00
-6.314326e+00
-6.313873e+00
-6.313472e+00
-6.313125e+00
-6.312830e+00
-6.312589e+00
-6.312401e+00
-6.312267e+00
-6.312186e+00
-6.312159e+00
-6.607986e+00
-6.605864e+00
-6.603830e+00
-6.601791e+00
-6.599732e+00
-6.597651e+00
-6.595547e+00
-6.593423e+00
-6.591277e+00
-6.589111e+00
-6.586926e+00
-6.584721e+00
-6.582498e+00
-6.580257e+00
-6.577998e+00
-6.575723e+00
-6.573430e+00
-6.571122e+00
-6.568798e+00
-6.566459e+00
-6.564106e+00
-6.561738e+00
-6.559357e+00
-6.556962e+00
-6.554555e+00
-6.552136e+00
-6.549705e+00
-6.547263e+00
-6.544810e+00
-6.542346e+00
-6.539873e+00
-6.537390e+00
-6.534898e+00
-6.532398e+00
-6.529889e+00
-6.527373e+00
-6.524850e+00
-6.522320e+00
-6.519783e+00
-6.517241e+00
-6.514693e+00
-6.512140e+00
-6.509582e+00
-6.507021e+00
-6.504455e+00
-6.501886e+00
-6.499315e+00
-6.496741e+00
-6.494164e+00
-6.491587e+00
-6.489008e+00
-6.486428e+00
-6.483848e+00
-6.481268e+00
-6.478689e+00
-6.476110e+00
-6.473533e+00
-6.470958e+00
-6.468385e+00
-6.465814e+00
-6.463247e+00
-6.460684e+00
-6.458124e+00
-6.455569e+00
-6.453019e+00
-6.450474e+00
-6.447935e+00
-6.445402e+00
-6.442875e+00
-6.440356e+00
-6.437845e+00
-6.435341e+00
-6.432846e+00
-6.430361e+00
-6.427884e+00
-6.425418e+00
-6.422962e+00
-6.420517e+00
-6.418083e+00
-6.415661e+00
-6.413252e+00
-6.410856e+00
-6.408473e+00
-6.406104e+00
-6.403750e+00
-6.401410e+00
-6.399087e+00
-6.396779e+00
-6.394488e+00
-6.392214e+00
-6.389958e+00
-6.387720e+00
-6.385501e+00
-6.383302e+00
-6.381122e+00
-6.378964e+00
-6.376826e+00
-6.374711e+00
-6.372618e+00
-6.370548e+00
-6.368502e+00
-6.366480e+00
-6.364484e+00
-6.362513e+00
-6.360568e+00
-6.358651e+00
-6.356761e+00
-6.354900e+00
-6.353068e+00
-6.351265e+00
-6.349494e+00
-6.347753e+00
-6.346045e+00
-6.344369e+00
-6.342727e+00
-6.341120e+00
-6.339547e+00
-6.338010e+00
-6.336510e+00
-6.335047e+00
-6.333622e+00
-6.332236e+00
-6.330890e+00
-6.329585e+00
-6.328321e+00
-6.327099e+00
-6.325920e+00
-6.324785e+00
-6.323694e+00
-6.322648e+00
-6.321649e+00
-6.320696e+00
-6.319790e+00
-6.318933e+00
-6.318124e+00
-6.317365e+00
-6.316655e+00
-6.315996e+00
-6.315388e+00
-6.314831e+00
-6.314326e+00
-6.313873e+00
-6.313472e+00
-6.313125e+00
-6.312830e+00
-6.312589e+00
-6.312401e+00
-6.312267e+00
-6.312186e+00
-6.312159e+00
