# vtk DataFile Version 3.0
Monodomain FEM
ASCII
DATASET POLYDATA
POINTS 601 float
0.000000e+00 0.000000e+00 0.000000e+00
6.667000e-03 0.000000e+00 0.000000e+00
1.333300e-02 0.000000e+00 0.000000e+00
2.000000e-02 0.000000e+00 0.000000e+00
2.666700e-02 0.000000e+00 0.000000e+00
3.333300e-02 0.000000e+00 0.000000e+00
4.000000e-02 0.000000e+00 0.000000e+00
4.666700e-02 0.000000e+00 0.000000e+00
5.333300e-02 0.000000e+00 0.000000e+00
6.000000e-02 0.000000e+00 0.000000e+00
6.666700e-02 0.000000e+00 0.000000e+00
7.333300e-02 0.000000e+00 0.000000e+00
8.000000e-02 0.000000e+00 0.000000e+00
8.666700e-02 0.000000e+00 0.000000e+00
9.333300e-02 0.000000e+00 0.000000e+00
1.000000e-01 0.000000e+00 0.000000e+00
1.066670e-01 0.000000e+00 0.000000e+00
1.133330e-01 0.000000e+00 0.000000e+00
1.200000e-01 0.000000e+00 0.000000e+00
1.266670e-01 0.000000e+00 0.000000e+00
1.333330e-01 0.000000e+00 0.000000e+00
1.400000e-01 0.000000e+00 0.000000e+00
1.466670e-01 0.000000e+00 0.000000e+00
1.533330e-01 0.000000e+00 0.000000e+00
1.600000e-01 0.000000e+00 0.000000e+00
1.666670e-01 0.000000e+00 0.000000e+00
1.733330e-01 0.000000e+00 0.000000e+00
1.800000e-01 0.000000e+00 0.000000e+00
1.866670e-01 0.000000e+00 0.000000e+00
1.933330e-01 0.000000e+00 0.000000e+00
2.000000e-01 0.000000e+00 0.000000e+00
2.066670e-01 0.000000e+00 0.000000e+00
2.133330e-01 0.000000e+00 0.000000e+00
2.200000e-01 0.000000e+00 0.000000e+00
2.266670e-01 0.000000e+00 0.000000e+00
2.333330e-01 0.000000e+00 0.000000e+00
2.400000e-01 0.000000e+00 0.000000e+00
2.466670e-01 0.000000e+00 0.000000e+00
2.533330e-01 0.000000e+00 0.000000e+00
2.600000e-01 0.000000e+00 0.000000e+00
2.666670e-01 0.000000e+00 0.000000e+00
2.733330e-01 0.000000e+00 0.000000e+00
2.800000e-01 0.000000e+00 0.000000e+00
2.866670e-01 0.000000e+00 0.000000e+00
2.933330e-01 0.000000e+00 0.000000e+00
3.000000e-01 0.000000e+00 0.000000e+00
3.066670e-01 0.000000e+00 0.000000e+00
3.133330e-01 0.000000e+00 0.000000e+00
3.200000e-01 0.000000e+00 0.000000e+00
3.266670e-01 0.000000e+00 0.000000e+00
3.333330e-01 0.000000e+00 0.000000e+00
3.400000e-01 0.000000e+00 0.000000e+00
3.466670e-01 0.000000e+00 0.000000e+00
3.533330e-01 0.000000e+00 0.000000e+00
3.600000e-01 0.000000e+00 0.000000e+00
3.666670e-01 0.000000e+00 0.000000e+00
3.733330e-01 0.000000e+00 0.000000e+00
3.800000e-01 0.000000e+00 0.000000e+00
3.866670e-01 0.000000e+00 0.000000e+00
3.933330e-01 0.000000e+00 0.000000e+00
4.000000e-01 0.000000e+00 0.000000e+00
4.066670e-01 0.000000e+00 0.000000e+00
4.133330e-01 0.000000e+00 0.000000e+00
4.200000e-01 0.000000e+00 0.000000e+00
4.266670e-01 0.000000e+00 0.000000e+00
4.333330e-01 0.000000e+00 0.000000e+00
4.400000e-01 0.000000e+00 0.000000e+00
4.466670e-01 0.000000e+00 0.000000e+00
4.533330e-01 0.000000e+00 0.000000e+00
4.600000e-01 0.000000e+00 0.000000e+00
4.666670e-01 0.000000e+00 0.000000e+00
4.733330e-01 0.000000e+00 0.000000e+00
4.800000e-01 0.000000e+00 0.000000e+00
4.866670e-01 0.000000e+00 0.000000e+00
4.933330e-01 0.000000e+00 0.000000e+00
5.000000e-01 0.000000e+00 0.000000e+00
5.066670e-01 0.000000e+00 0.000000e+00
5.133330e-01 0.000000e+00 0.000000e+00
5.200000e-01 0.000000e+00 0.000000e+00
5.266670e-01 0.000000e+00 0.000000e+00
5.333330e-01 0.000000e+00 0.000000e+00
5.400000e-01 0.000000e+00 0.000000e+00
5.466670e-01 0.000000e+00 0.000000e+00
5.533330e-01 0.000000e+00 0.000000e+00
5.600000e-01 0.000000e+00 0.000000e+00
5.666670e-01 0.000000e+00 0.000000e+00
5.733330e-01 0.000000e+00 0.000000e+00
5.800000e-01 0.000000e+00 0.000000e+00
5.866670e-01 0.000000e+00 0.000000e+00
5.933330e-01 0.000000e+00 0.000000e+00
6.000000e-01 0.000000e+00 0.000000e+00
6.066670e-01 0.000000e+00 0.000000e+00
6.133330e-01 0.000000e+00 0.000000e+00
6.200000e-01 0.000000e+00 0.000000e+00
6.266670e-01 0.000000e+00 0.000000e+00
6.333330e-01 0.000000e+00 0.000000e+00
6.400000e-01 0.000000e+00 0.000000e+00
6.466670e-01 0.000000e+00 0.000000e+00
6.533330e-01 0.000000e+00 0.000000e+00
6.600000e-01 0.000000e+00 0.000000e+00
6.666670e-01 0.000000e+00 0.000000e+00
6.733330e-01 0.000000e+00 0.000000e+00
6.800000e-01 0.000000e+00 0.000000e+00
6.866670e-01 0.000000e+00 0.000000e+00
6.933330e-01 0.000000e+00 0.000000e+00
7.000000e-01 0.000000e+00 0.000000e+00
7.066670e-01 0.000000e+00 0.000000e+00
7.133330e-01 0.000000e+00 0.000000e+00
7.200000e-01 0.000000e+00 0.000000e+00
7.266670e-01 0.000000e+00 0.000000e+00
7.333330e-01 0.000000e+00 0.000000e+00
7.400000e-01 0.000000e+00 0.000000e+00
7.466670e-01 0.000000e+00 0.000000e+00
7.533330e-01 0.000000e+00 0.000000e+00
7.600000e-01 0.000000e+00 0.000000e+00
7.666670e-01 0.000000e+00 0.000000e+00
7.733330e-01 0.000000e+00 0.000000e+00
7.800000e-01 0.000000e+00 0.000000e+00
7.866670e-01 0.000000e+00 0.000000e+00
7.933330e-01 0.000000e+00 0.000000e+00
8.000000e-01 0.000000e+00 0.000000e+00
8.066670e-01 0.000000e+00 0.000000e+00
8.133330e-01 0.000000e+00 0.000000e+00
8.200000e-01 0.000000e+00 0.000000e+00
8.266670e-01 0.000000e+00 0.000000e+00
8.333330e-01 0.000000e+00 0.000000e+00
8.400000e-01 0.000000e+00 0.000000e+00
8.466670e-01 0.000000e+00 0.000000e+00
8.533330e-01 0.000000e+00 0.000000e+00
8.600000e-01 0.000000e+00 0.000000e+00
8.666670e-01 0.000000e+00 0.000000e+00
8.733330e-01 0.000000e+00 0.000000e+00
8.800000e-01 0.000000e+00 0.000000e+00
8.866670e-01 0.000000e+00 0.000000e+00
8.933330e-01 0.000000e+00 0.000000e+00
9.000000e-01 0.000000e+00 0.000000e+00
9.066670e-01 0.000000e+00 0.000000e+00
9.133330e-01 0.000000e+00 0.000000e+00
9.200000e-01 0.000000e+00 0.000000e+00
9.266670e-01 0.000000e+00 0.000000e+00
9.333330e-01 0.000000e+00 0.000000e+00
9.400000e-01 0.000000e+00 0.000000e+00
9.466670e-01 0.000000e+00 0.000000e+00
9.533330e-01 0.000000e+00 0.000000e+00
9.600000e-01 0.000000e+00 0.000000e+00
9.666670e-01 0.000000e+00 0.000000e+00
9.733330e-01 0.000000e+00 0.000000e+00
9.800000e-01 0.000000e+00 0.000000e+00
9.866670e-01 0.000000e+00 0.000000e+00
9.933330e-01 0.000000e+00 0.000000e+00
1.000000e+00 0.000000e+00 0.000000e+00
1.006667e+00 0.000000e+00 0.000000e+00
1.013333e+00 0.000000e+00 0.000000e+00
1.020000e+00 0.000000e+00 0.000000e+00
1.026667e+00 0.000000e+00 0.000000e+00
1.033333e+00 0.000000e+00 0.000000e+00
1.040000e+00 0.000000e+00 0.000000e+00
1.046667e+00 0.000000e+00 0.000000e+00
1.053333e+00 0.000000e+00 0.000000e+00
1.060000e+00 0.000000e+00 0.000000e+00
1.066667e+00 0.000000e+00 0.000000e+00
1.073333e+00 0.000000e+00 0.000000e+00
1.080000e+00 0.000000e+00 0.000000e+00
1.086667e+00 0.000000e+00 0.000000e+00
1.093333e+00 0.000000e+00 0.000000e+00
1.100000e+00 0.000000e+00 0.000000e+00
1.106667e+00 0.000000e+00 0.000000e+00
1.113333e+00 0.000000e+00 0.000000e+00
1.120000e+00 0.000000e+00 0.000000e+00
1.126667e+00 0.000000e+00 0.000000e+00
1.133333e+00 0.000000e+00 0.000000e+00
1.140000e+00 0.000000e+00 0.000000e+00
1.146667e+00 0.000000e+00 0.000000e+00
1.153333e+00 0.000000e+00 0.000000e+00
1.160000e+00 0.000000e+00 0.000000e+00
1.166667e+00 0.000000e+00 0.000000e+00
1.173333e+00 0.000000e+00 0.000000e+00
1.180000e+00 0.000000e+00 0.000000e+00
1.186667e+00 0.000000e+00 0.000000e+00
1.193333e+00 0.000000e+00 0.000000e+00
1.200000e+00 0.000000e+00 0.000000e+00
1.206667e+00 0.000000e+00 0.000000e+00
1.213333e+00 0.000000e+00 0.000000e+00
1.220000e+00 0.000000e+00 0.000000e+00
1.226667e+00 0.000000e+00 0.000000e+00
1.233333e+00 0.000000e+00 0.000000e+00
1.240000e+00 0.000000e+00 0.000000e+00
1.246667e+00 0.000000e+00 0.000000e+00
1.253333e+00 0.000000e+00 0.000000e+00
1.260000e+00 0.000000e+00 0.000000e+00
1.266667e+00 0.000000e+00 0.000000e+00
1.273333e+00 0.000000e+00 0.000000e+00
1.280000e+00 0.000000e+00 0.000000e+00
1.286667e+00 0.000000e+00 0.000000e+00
1.293333e+00 0.000000e+00 0.000000e+00
1.300000e+00 0.000000e+00 0.000000e+00
1.306667e+00 0.000000e+00 0.000000e+00
1.313333e+00 0.000000e+00 0.000000e+00
1.320000e+00 0.000000e+00 0.000000e+00
1.326667e+00 0.000000e+00 0.000000e+00
1.333333e+00 0.000000e+00 0.000000e+00
1.340000e+00 0.000000e+00 0.000000e+00
1.346667e+00 0.000000e+00 0.000000e+00
1.353333e+00 0.000000e+00 0.000000e+00
1.360000e+00 0.000000e+00 0.000000e+00
1.366667e+00 0.000000e+00 0.000000e+00
1.373333e+00 0.000000e+00 0.000000e+00
1.380000e+00 0.000000e+00 0.000000e+00
1.386667e+00 0.000000e+00 0.000000e+00
1.393333e+00 0.000000e+00 0.000000e+00
1.400000e+00 0.000000e+00 0.000000e+00
1.406667e+00 0.000000e+00 0.000000e+00
1.413333e+00 0.000000e+00 0.000000e+00
1.420000e+00 0.000000e+00 0.000000e+00
1.426667e+00 0.000000e+00 0.000000e+00
1.433333e+00 0.000000e+00 0.000000e+00
1.440000e+00 0.000000e+00 0.000000e+00
1.446667e+00 0.000000e+00 0.000000e+00
1.453333e+00 0.000000e+00 0.000000e+00
1.460000e+00 0.000000e+00 0.000000e+00
1.466667e+00 0.000000e+00 0.000000e+00
1.473333e+00 0.000000e+00 0.000000e+00
1.480000e+00 0.000000e+00 0.000000e+00
1.486667e+00 0.000000e+00 0.000000e+00
1.493333e+00 0.000000e+00 0.000000e+00
1.500000e+00 0.000000e+00 0.000000e+00
1.506667e+00 0.000000e+00 0.000000e+00
1.513333e+00 0.000000e+00 0.000000e+00
1.520000e+00 0.000000e+00 0.000000e+00
1.526667e+00 0.000000e+00 0.000000e+00
1.533333e+00 0.000000e+00 0.000000e+00
1.540000e+00 0.000000e+00 0.000000e+00
1.546667e+00 0.000000e+00 0.000000e+00
1.553333e+00 0.000000e+00 0.000000e+00
1.560000e+00 0.000000e+00 0.000000e+00
1.566667e+00 0.000000e+00 0.000000e+00
1.573333e+00 0.000000e+00 0.000000e+00
1.580000e+00 0.000000e+00 0.000000e+00
1.586667e+00 0.000000e+00 0.000000e+00
1.593333e+00 0.000000e+00 0.000000e+00
1.600000e+00 0.000000e+00 0.000000e+00
1.606667e+00 0.000000e+00 0.000000e+00
1.613333e+00 0.000000e+00 0.000000e+00
1.620000e+00 0.000000e+00 0.000000e+00
1.626667e+00 0.000000e+00 0.000000e+00
1.633333e+00 0.000000e+00 0.000000e+00
1.640000e+00 0.000000e+00 0.000000e+00
1.646667e+00 0.000000e+00 0.000000e+00
1.653333e+00 0.000000e+00 0.000000e+00
1.660000e+00 0.000000e+00 0.000000e+00
1.666667e+00 0.000000e+00 0.000000e+00
1.673333e+00 0.000000e+00 0.000000e+00
1.680000e+00 0.000000e+00 0.000000e+00
1.686667e+00 0.000000e+00 0.000000e+00
[...]
POINT_DATA 601
SCALARS vm float 1
LOOKUP_TABLE default
-6.915238e+00
-6.915187e+00
-6.915031e+00
-6.914773e+00
-6.914414e+00
-6.913956e+00
-6.912944e+00
-6.912366e+00
-6.911723e+00
-6.911017e+00
-6.910248e+00
-6.909419e+00
-6.908529e+00
-6.907581e+00
-6.906576e+00
-6.905514e+00
-6.904397e+00
-6.903225e+00
-6.902000e+00
-6.900723e+00
-6.899394e+00
-6.898015e+00
-6.896587e+00
-6.895109e+00
-6.893584e+00
-6.892012e+00
-6.890394e+00
-6.888730e+00
-6.887022e+00
-6.885270e+00
-6.883474e+00
-6.881637e+00
-6.879757e+00
-6.877837e+00
-6.875876e+00
-6.873876e+00
-6.871836e+00
-6.869758e+00
-6.867642e+00
-6.865489e+00
-6.863299e+00
-6.861073e+00
-6.858811e+00
-6.856514e+00
-6.854182e+00
-6.851817e+00
-6.849417e+00
-6.846985e+00
-6.844519e+00
-6.842021e+00
-6.839492e+00
-6.836930e+00
-6.834338e+00
-6.831715e+00
-6.829061e+00
-6.826377e+00
-6.823664e+00
-6.820921e+00
-6.818148e+00
-6.815347e+00
-6.812517e+00
-6.809659e+00
-6.806773e+00
-6.803859e+00
-6.800917e+00
-6.797948e+00
-6.794951e+00
-6.791928e+00
-6.788877e+00
-6.785800e+00
-6.782696e+00
-6.779565e+00
-6.776408e+00
-6.773225e+00
-6.770016e+00
-6.766780e+00
-6.763519e+00
-6.760231e+00
-6.756918e+00
-6.753578e+00
-6.750213e+00
-6.746822e+00
-6.743405e+00
-6.739962e+00
-6.736493e+00
-6.732998e+00
-6.729477e+00
-6.725930e+00
-6.722357e+00
-6.718758e+00
-6.715132e+00
-6.711480e+00
-6.707801e+00
-6.704096e+00
-6.700364e+00
-6.696604e+00
-6.692818e+00
-6.689004e+00
-6.685163e+00
-6.681294e+00
-6.677398e+00
-6.673473e+00
-6.669519e+00
-6.665538e+00
-6.661527e+00
-6.657487e+00
-6.653418e+00
-6.649319e+00
-6.645190e+00
-6.641031e+00
-6.636842e+00
-6.632621e+00
-6.628370e+00
-6.624086e+00
-6.619771e+00
-6.615424e+00
-6.611044e+00
-6.606631e+00
-6.602184e+00
-6.597704e+00
-6.593189e+00
-6.588640e+00
-6.584056e+00
-6.579437e+00
-6.574781e+00
-6.570089e+00
-6.565360e+00
-6.560595e+00
-6.555791e+00
-6.550949e+00
-6.546068e+00
-6.541149e+00
-6.536189e+00
-6.531190e+00
-6.526149e+00
-6.521068e+00
-6.515944e+00
-6.510779e+00
-6.505570e+00
-6.500317e+00
-6.495020e+00
-6.489678e+00
-6.484289e+00
-6.478853e+00
-6.473368e+00
-6.467833e+00
-6.462247e+00
-6.456607e+00
-6.450904e+00
-6.445092e+00
-6.438891e+00
-6.436146e+00
-6.434034e+00
-6.432009e+00
-6.429979e+00
-6.427929e+00
-6.425857e+00
-6.423763e+00
-6.421648e+00
-6.419512e+00
-6.417356e+00
-6.415180e+00
-6.412985e+00
-6.410772e+00
-6.408541e+00
-6.406292e+00
-6.404027e+00
-6.401744e+00
-6.399446e+00
-6.397133e+00
-6.394805e+00
-6.392462e+00
-6.390105e+00
-6.387734e+00
-6.385351e+00
-6.382954e+00
-6.380546e+00
-6.378126e+00
-6.375695e+00
-6.373253e+00
-6.370800e+00
-6.368338e+00
-6.365866e+00
-6.363386e+00
-6.360897e+00
-6.358400e+00
-6.355895e+00
-6.353383e+00
-6.350864e+00
-6.348339e+00
-6.345808e+00
-6.343272e+00
-6.340731e+00
-6.338185e+00
-6.335635e+00
-6.333081e+00
-6.330524e+00
-6.327964e+00
-6.325402e+00
-6.322837e+00
-6.320271e+00
-6.317704e+00
-6.315136e+00
-6.312568e+00
-6.310000e+00
-6.307432e+00
-6.304866e+00
-6.302301e+00
-6.299737e+00
-6.297176e+00
-6.294618e+00
-6.292062e+00
-6.289510e+00
-6.286963e+00
-6.284419e+00
-6.281881e+00
-6.279347e+00
-6.276820e+00
-6.274299e+00
-6.271784e+00
-6.269277e+00
-6.266777e+00
-6.264285e+00
-6.261802e+00
-6.259327e+00
-6.256862e+00
-6.254407e+00
-6.251963e+00
-6.249529e+00
-6.247107e+00
-6.244696e+00
-6.242298e+00
-6.239913e+00
-6.237541e+00
-6.235183e+00
-6.232840e+00
-6.230511e+00
-6.228198e+00
-6.225901e+00
-6.223621e+00
-6.221357e+00
-6.219112e+00
-6.216884e+00
-6.214676e+00
-6.212486e+00
-6.210317e+00
-6.208169e+00
-6.206041e+00
-6.203935e+00
-6.201852e+00
-6.199792e+00
-6.197755e+00
-6.195743e+00
-6.193756e+00
-6.191794e+00
-6.189858e+00
-6.187950e+00
-6.186069e+00
-6.184216e+00
-6.182393e+00
-6.180599e+00
-6.178835e+00
-6.177103e+00
-6.175403e+00
-6.173735e+00
-6.172100e+00
-6.170500e+00
-6.168935e+00
-6.167405e+00
-6.165912e+00
-6.164455e+00
-6.163037e+00
-6.161658e+00
-6.160318e+00
-6.159019e+00
-6.157761e+00
-6.156544e+00
-6.155371e+00
-6.154241e+00
-6.153155e+00
-6.152115e+00
-6.151120e+00
-6.150171e+00
-6.149270e+00
-6.148416e+00
-6.147611e+00
-6.146855e+00
-6.146149e+00
-6.145493e+00
-6.144888e+00
-6.144333e+00
-6.143831e+00
-6.143380e+00
-6.142981e+00
-6.142635e+00
-6.142342e+00
-6.142102e+00
-6.141915e+00
-6.141781e+00
-6.141701e+00
-6.141674e+00
-6.436146e+00
-6.434034e+00
-6.432009e+00
-6.429979e+00
-6.427929e+00
-6.425857e+00
-6.423763e+00
-6.421648e+00
-6.419512e+00
-6.417356e+00
-6.415180e+00
-6.412985e+00
-6.410772e+00
-6.408541e+00
-6.406292e+00
-6.404027e+00
-6.401744e+00
-6.399446e+00
-6.397133e+00
-6.394805e+00
-6.392462e+00
-6.390105e+00
-6.387734e+00
-6.385351e+00
-6.382954e+00
-6.380546e+00
-6.378126e+00
-6.375695e+00
-6.373253e+00
-6.370800e+00
-6.368338e+00
-6.365866e+00
-6.363386e+00
-6.360897e+00
-6.358400e+00
-6.355895e+00
-6.353383e+00
-6.350864e+00
-6.348339e+00
-6.345808e+00
-6.343272e+00
-6.340731e+00
-6.338185e+00
-6.335635e+00
-6.333081e+00
-6.330524e+00
-6.327964e+00
-6.325402e+00
-6.322837e+00
-6.320271e+00
-6.317704e+00
-6.315136e+00
-6.312568e+00
-6.310000e+00
-6.307432e+00
-6.304866e+00
-6.302301e+00
-6.299737e+00
-6.297176e+00
-6.294618e+00
-6.292062e+00
-6.289510e+00
-6.286963e+00
-6.284419e+00
-6.281881e+00
-6.279347e+00
-6.276820e+00
-6.274299e+00
-6.271784e+00
-6.269277e+00
-6.266777e+00
-6.264285e+00
-6.261802e+00
-6.259327e+00
-6.256862e+00
-6.254407e+00
-6.251963e+00
-6.249529e+00
-6.247107e+00
-6.244696e+00
-6.242298e+00
-6.239913e+00
-6.237541e+00
-6.235183e+00
-6.232840e+00
-6.230511e+00
-6.228198e+00
-6.225901e+00
-6.223621e+00
-6.221357e+00
-6.219112e+00
-6.216884e+00
-6.214676e+00
-6.212486e+00
-6.210317e+00
-6.208169e+00
-6.206041e+00
-6.203935e+00
-6.201852e+00
-6.199792e+00
-6.197755e+00
-6.195743e+00
-6.193756e+00
-6.191794e+00
-6.189858e+00
-6.187950e+00
-6.186069e+00
-6.184216e+00
-6.182393e+00
-6.180599e+00
-6.178835e+00
-6.177103e+00
-6.175403e+00
-6.173735e+00
-6.172100e+00
-6.170500e+00
-6.168935e+00
-6.167405e+00
-6.165912e+00
-6.164455e+00
-6.163037e+00
-6.161658e+00
-6.160318e+00
-6.159019e+00
-6.157761e+00
-6.156544e+00
-6.155371e+00
-6.154241e+00
-6.153155e+00
-6.152115e+00
-6.151120e+00
-6.150171e+00
-6.149270e+00
-6.148416e+00
-6.147611e+00
-6.146855e+00
-6.146149e+00
-6.145493e+00
-6.144888e+00
-6.144333e+00
-6.143831e+00
-6.143380e+00
-6.142981e+00
-6.142635e+00
-6.142342e+00
-6.142102e+00
-6.141915e+00
-6.141781e+00
-6.141701e+00
-6.141674e+00
-6.436146e+00
-6.434034e+00
-6.432009e+00
-6.429979e+00
-6.427929e+00
-6.425857e+00
-6.423763e+00
-6.421648e+00
-6.419512e+00
-6.417356e+00
-6.415180e+00
-6.412985e+00
-6.410772e+00
-6.408541e+00
-6.406292e+00
-6.404027e+00
-6.401744e+00
-6.399446e+00
-6.397133e+00
-6.394805e+00
-6.392462e+00
-6.390105e+00
-6.387734e+00
-6.385351e+00
-6.382954e+00
-6.380546e+00
-6.378126e+00
-6.375695e+00
-6.373253e+00
-6.370800e+00
-6.368338e+00
-6.365866e+00
-6.363386e+00
-6.360897e+00
-6.358400e+00
-6.355895e+00
-6.353383e+00
-6.350864e+00
-6.348339e+00
-6.345808e+00
-6.343272e+00
-6.340731e+00
-6.338185e+00
-6.335635e+00
-6.333081e+00
-6.330524e+00
-6.327964e+00
-6.325402e+00
-6.322837e+00
-6.320271e+00
-6.317704e+00
-6.315136e+00
-6.312568e+00
-6.310000e+00
-6.307432e+00
-6.304866e+00
-6.302301e+00
-6.299737e+00
-6.297176e+00
-6.294618e+00
-6.292062e+00
-6.289510e+00
-6.286963e+00
-6.284419e+00
-6.281881e+00
-6.279347e+00
-6.276820e+00
-6.274299e+00
-6.271784e+00
-6.269277e+00
-6.266777e+00
-6.264285e+00
-6.261802e+00
-6.259327e+00
-6.256862e+00
-6.254407e+00
-6.251963e+00
-6.249529e+00
-6.247107e+00
-6.244696e+00
-6.242298e+00
-6.239913e+00
-6.237541e+00
-6.235183e+00
-6.232840e+00
-6.230511e+00
-6.228198e+00
-6.225901e+00
-6.223621e+00
-6.221357e+00
-6.219112e+00
-6.216884e+00
-6.214676e+00
-6.212486e+00
-6.210317e+00
-6.208169e+00
-6.206041e+00
-6.203935e+00
-6.201852e+00
-6.199792e+00
-6.197755e+00
-6.195743e+00
-6.193756e+00
-6.191794e+00
-6.189858e+00
-6.187950e+00
-6.186069e+00
-6.184216e+00
-6.182393e+00
-6.180599e+00
-6.178835e+00
-6.177103e+00
-6.175403e+00
-6.173735e+00
-6.172100e+00
-6.170500e+00
-6.168935e+00
-6.167405e+00
-6.165912e+00
-6.164455e+00
-6.163037e+00
-6.161658e+00
-6.160318e+00
-6.159019e+00
-6.157761e+00
-6.156544e+00
-6.155371e+00
-6.154241e+00
-6.153155e+00
-6.152115e+00
-6.151120e+00
-6.150171e+00
-6.149270e+00
-6.148416e+00
-6.147611e+00
-6.146855e+00
-6.146149e+00
-6.145493e+00
-6.144888e+00
-6.144333e+00
-6.143831e+00
-6.143380e+00
-6.142981e+00
-6.142635e+00
-6.142342e+00
-6.142102e+00
-6.141915e+00
-6.141781e+00
-6.141701e+00
-6.141674e+00
