# vtk DataFile Version 3.0
Monodomain FEM
ASCII
DATASET POLYDATA
POINTS 601 float
0.000000e+00 0.000000e+00 0.000000e+00
6.667000e-03 0.000000e+00 0.000000e+00
1.333300e-02 0.000000e+00 0.000000e+00
2.000000e-02 0.000000e+00 0.000000e+00
2.666700e-02 0.000000e+00 0.000000e+00
3.333300e-02 0.000000e+00 0.000000e+00
4.000000e-02 0.000000e+00 0.000000e+00
4.666700e-02 0.000000e+00 0.000000e+00
5.333300e-02 0.000000e+00 0.000000e+00
6.000000e-02 0.000000e+00 0.000000e+00
6.666700e-02 0.000000e+00 0.000000e+00
7.333300e-02 0.000000e+00 0.000000e+00
8.000000e-02 0.000000e+00 0.000000e+00
8.666700e-02 0.000000e+00 0.000000e+00
9.333300e-02 0.000000e+00 0.000000e+00
1.000000e-01 0.000000e+00 0.000000e+00
1.066670e-01 0.000000e+00 0.000000e+00
1.133330e-01 0.000000e+00 0.000000e+00
1.200000e-01 0.000000e+00 0.000000e+00
1.266670e-01 0.000000e+00 0.000000e+00
1.333330e-01 0.000000e+00 0.000000e+00
1.400000e-01 0.000000e+00 0.000000e+00
1.466670e-01 0.000000e+00 0.000000e+00
1.533330e-01 0.000000e+00 0.000000e+00
1.600000e-01 0.000000e+00 0.000000e+00
1.666670e-01 0.000000e+00 0.000000e+00
1.733330e-01 0.000000e+00 0.000000e+00
1.800000e-01 0.000000e+00 0.000000e+00
1.866670e-01 0.000000e+00 0.000000e+00
1.933330e-01 0.000000e+00 0.000000e+00
2.000000e-01 0.000000e+00 0.000000e+00
2.066670e-01 0.000000e+00 0.000000e+00
2.133330e-01 0.000000e+00 0.000000e+00
2.200000e-01 0.000000e+00 0.000000e+00
2.266670e-01 0.000000e+00 0.000000e+00
2.333330e-01 0.000000e+00 0.000000e+00
2.400000e-01 0.000000e+00 0.000000e+00
2.466670e-01 0.000000e+00 0.000000e+00
2.533330e-01 0.000000e+00 0.000000e+00
2.600000e-01 0.000000e+00 0.000000e+00
2.666670e-01 0.000000e+00 0.000000e+00
2.733330e-01 0.000000e+00 0.000000e+00
2.800000e-01 0.000000e+00 0.000000e+00
2.866670e-01 0.000000e+00 0.000000e+00
2.933330e-01 0.000000e+00 0.000000e+00
3.000000e-01 0.000000e+00 0.000000e+00
3.066670e-01 0.000000e+00 0.000000e+00
3.133330e-01 0.000000e+00 0.000000e+00
3.200000e-01 0.000000e+00 0.000000e+00
3.266670e-01 0.000000e+00 0.000000e+00
3.333330e-01 0.000000e+00 0.000000e+00
3.400000e-01 0.000000e+00 0.000000e+00
3.466670e-01 0.000000e+00 0.000000e+00
3.533330e-01 0.000000e+00 0.000000e+00
3.600000e-01 0.000000e+00 0.000000e+00
3.666670e-01 0.000000e+00 0.000000e+00
3.733330e-01 0.000000e+00 0.000000e+00
3.800000e-01 0.000000e+00 0.000000e+00
3.866670e-01 0.000000e+00 0.000000e+00
3.933330e-01 0.000000e+00 0.000000e+00
4.000000e-01 0.000000e+00 0.000000e+00
4.066670e-01 0.000000e+00 0.000000e+00
4.133330e-01 0.000000e+00 0.000000e+00
4.200000e-01 0.000000e+00 0.000000e+00
4.266670e-01 0.000000e+00 0.000000e+00
4.333330e-01 0.000000e+00 0.000000e+00
4.400000e-01 0.000000e+00 0.000000e+00
4.466670e-01 0.000000e+00 0.000000e+00
4.533330e-01 0.000000e+00 0.000000e+00
4.600000e-01 0.000000e+00 0.000000e+00
4.666670e-01 0.000000e+00 0.000000e+00
4.733330e-01 0.000000e+00 0.000000e+00
4.800000e-01 0.000000e+00 0.000000e+00
4.866670e-01 0.000000e+00 0.000000e+00
4.933330e-01 0.000000e+00 0.000000e+00
5.000000e-01 0.000000e+00 0.000000e+00
5.066670e-01 0.000000e+00 0.000000e+00
5.133330e-01 0.000000e+00 0.000000e+00
5.200000e-01 0.000000e+00 0.000000e+00
5.266670e-01 0.000000e+00 0.000000e+00
5.333330e-01 0.000000e+00 0.000000e+00
5.400000e-01 0.000000e+00 0.000000e+00
5.466670e-01 0.000000e+00 0.000000e+00
5.533330e-01 0.000000e+00 0.000000e+00
5.600000e-01 0.000000e+00 0.000000e+00
5.666670e-01 0.000000e+00 0.000000e+00
5.733330e-01 0.000000e+00 0.000000e+00
5.800000e-01 0.000000e+00 0.000000e+00
5.866670e-01 0.000000e+00 0.000000e+00
5.933330e-01 0.000000e+00 0.000000e+00
6.000000e-01 0.000000e+00 0.000000e+00
6.066670e-01 0.000000e+00 0.000000e+00
6.133330e-01 0.000000e+00 0.000000e+00
6.200000e-01 0.000000e+00 0.000000e+00
6.266670e-01 0.000000e+00 0.000000e+00
6.333330e-01 0.000000e+00 0.000000e+00
6.400000e-01 0.000000e+00 0.000000e+00
6.466670e-01 0.000000e+00 0.000000e+00
6.533330e-01 0.000000e+00 0.000000e+00
6.600000e-01 0.000000e+00 0.000000e+00
6.666670e-01 0.000000e+00 0.000000e+00
6.733330e-01 0.000000e+00 0.000000e+00
6.800000e-01 0.000000e+00 0.000000e+00
6.866670e-01 0.000000e+00 0.000000e+00
6.933330e-01 0.000000e+00 0.000000e+00
7.000000e-01 0.000000e+00 0.000000e+00
7.066670e-01 0.000000e+00 0.000000e+00
7.133330e-01 0.000000e+00 0.000000e+00
7.200000e-01 0.000000e+00 0.000000e+00
7.266670e-01 0.000000e+00 0.000000e+00
7.333330e-01 0.000000e+00 0.000000e+00
7.400000e-01 0.000000e+00 0.000000e+00
7.466670e-01 0.000000e+00 0.000000e+00
7.533330e-01 0.000000e+00 0.000000e+00
7.600000e-01 0.000000e+00 0.000000e+00
7.666670e-01 0.000000e+00 0.000000e+00
7.733330e-01 0.000000e+00 0.000000e+00
7.800000e-01 0.000000e+00 0.000000e+00
7.866670e-01 0.000000e+00 0.000000e+00
7.933330e-01 0.000000e+00 0.000000e+00
8.000000e-01 0.000000e+00 0.000000e+00
8.066670e-01 0.000000e+00 0.000000e+00
8.133330e-01 0.000000e+00 0.000000e+00
8.200000e-01 0.000000e+00 0.000000e+00
8.266670e-01 0.000000e+00 0.000000e+00
8.333330e-01 0.000000e+00 0.000000e+00
8.400000e-01 0.000000e+00 0.000000e+00
8.466670e-01 0.000000e+00 0.000000e+00
8.533330e-01 0.000000e+00 0.000000e+00
8.600000e-01 0.000000e+00 0.000000e+00
8.666670e-01 0.000000e+00 0.000000e+00
8.733330e-01 0.000000e+00 0.000000e+00
8.800000e-01 0.000000e+00 0.000000e+00
8.866670e-01 0.000000e+00 0.000000e+00
8.933330e-01 0.000000e+00 0.000000e+00
9.000000e-01 0.000000e+00 0.000000e+00
9.066670e-01 0.000000e+00 0.000000e+00
9.133330e-01 0.000000e+00 0.000000e+00
9.200000e-01 0.000000e+00 0.000000e+00
9.266670e-01 0.000000e+00 0.000000e+00
9.333330e-01 0.000000e+00 0.000000e+00
9.400000e-01 0.000000e+00 0.000000e+00
9.466670e-01 0.000000e+00 0.000000e+00
9.533330e-01 0.000000e+00 0.000000e+00
9.600000e-01 0.000000e+00 0.000000e+00
9.666670e-01 0.000000e+00 0.000000e+00
9.733330e-01 0.000000e+00 0.000000e+00
9.800000e-01 0.000000e+00 0.000000e+00
9.866670e-01 0.000000e+00 0.000000e+00
9.933330e-01 0.000000e+00 0.000000e+00
1.000000e+00 0.000000e+00 0.000000e+00
1.006667e+00 0.000000e+00 0.000000e+00
1.013333e+00 0.000000e+00 0.000000e+00
1.020000e+00 0.000000e+00 0.000000e+00
1.026667e+00 0.000000e+00 0.000000e+00
1.033333e+00 0.000000e+00 0.000000e+00
1.040000e+00 0.000000e+00 0.000000e+00
1.046667e+00 0.000000e+00 0.000000e+00
1.053333e+00 0.000000e+00 0.000000e+00
1.060000e+00 0.000000e+00 0.000000e+00
1.066667e+00 0.000000e+00 0.000000e+00
1.073333e+00 0.000000e+00 0.000000e+00
1.080000e+00 0.000000e+00 0.000000e+00
1.086667e+00 0.000000e+00 0.000000e+00
1.093333e+00 0.000000e+00 0.000000e+00
1.100000e+00 0.000000e+00 0.000000e+00
1.106667e+00 0.000000e+00 0.000000e+00
1.113333e+00 0.000000e+00 0.000000e+00
1.120000e+00 0.000000e+00 0.000000e+00
1.126667e+00 0.000000e+00 0.000000e+00
1.133333e+00 0.000000e+00 0.000000e+00
1.140000e+00 0.000000e+00 0.000000e+00
1.146667e+00 0.000000e+00 0.000000e+00
1.153333e+00 0.000000e+00 0.000000e+00
1.160000e+00 0.000000e+00 0.000000e+00
1.166667e+00 0.000000e+00 0.000000e+00
1.173333e+00 0.000000e+00 0.000000e+00
1.180000e+00 0.000000e+00 0.000000e+00
1.186667e+00 0.000000e+00 0.000000e+00
1.193333e+00 0.000000e+00 0.000000e+00
1.200000e+00 0.000000e+00 0.000000e+00
1.206667e+00 0.000000e+00 0.000000e+00
1.213333e+00 0.000000e+00 0.000000e+00
1.220000e+00 0.000000e+00 0.000000e+00
1.226667e+00 0.000000e+00 0.000000e+00
1.233333e+00 0.000000e+00 0.000000e+00
1.240000e+00 0.000000e+00 0.000000e+00
1.246667e+00 0.000000e+00 0.000000e+00
1.253333e+00 0.000000e+00 0.000000e+00
1.260000e+00 0.000000e+00 0.000000e+00
1.266667e+00 0.000000e+00 0.000000e+00
1.273333e+00 0.000000e+00 0.000000e+00
1.280000e+00 0.000000e+00 0.000000e+00
1.286667e+00 0.000000e+00 0.000000e+00
1.293333e+00 0.000000e+00 0.000000e+00
1.300000e+00 0.000000e+00 0.000000e+00
1.306667e+00 0.000000e+00 0.000000e+00
1.313333e+00 0.000000e+00 0.000000e+00
1.320000e+00 0.000000e+00 0.000000e+00
1.326667e+00 0.000000e+00 0.000000e+00
1.333333e+00 0.000000e+00 0.000000e+00
1.340000e+00 0.000000e+00 0.000000e+00
1.346667e+00 0.000000e+00 0.000000e+00
1.353333e+00 0.000000e+00 0.000000e+00
1.360000e+00 0.000000e+00 0.000000e+00
1.366667e+00 0.000000e+00 0.000000e+00
1.373333e+00 0.000000e+00 0.000000e+00
1.380000e+00 0.000000e+00 0.000000e+00
1.386667e+00 0.000000e+00 0.000000e+00
1.393333e+00 0.000000e+00 0.000000e+00
1.400000e+00 0.000000e+00 0.000000e+00
1.406667e+00 0.000000e+00 0.000000e+00
1.413333e+00 0.000000e+00 0.000000e+00
1.420000e+00 0.000000e+00 0.000000e+00
1.426667e+00 0.000000e+00 0.000000e+00
1.433333e+00 0.000000e+00 0.000000e+00
1.440000e+00 0.000000e+00 0.000000e+00
1.446667e+00 0.000000e+00 0.000000e+00
1.453333e+00 0.000000e+00 0.000000e+00
1.460000e+00 0.000000e+00 0.000000e+00
1.466667e+00 0.000000e+00 0.000000e+00
1.473333e+00 0.000000e+00 0.000000e+00
1.480000e+00 0.000000e+00 0.000000e+00
1.486667e+00 0.000000e+00 0.000000e+00
1.493333e+00 0.000000e+00 0.000000e+00
1.500000e+00 0.000000e+00 0.000000e+00
1.506667e+00 0.000000e+00 0.000000e+00
1.513333e+00 0.000000e+00 0.000000e+00
1.520000e+00 0.000000e+00 0.000000e+00
1.526667e+00 0.000000e+00 0.000000e+00
1.533333e+00 0.000000e+00 0.000000e+00
1.540000e+00 0.000000e+00 0.000000e+00
1.546667e+00 0.000000e+00 0.000000e+00
1.553333e+00 0.000000e+00 0.000000e+00
1.560000e+00 0.000000e+00 0.000000e+00
1.566667e+00 0.000000e+00 0.000000e+00
1.573333e+00 0.000000e+00 0.000000e+00
1.580000e+00 0.000000e+00 0.000000e+00
1.586667e+00 0.000000e+00 0.000000e+00
1.593333e+00 0.000000e+00 0.000000e+00
1.600000e+00 0.000000e+00 0.000000e+00
1.606667e+00 0.000000e+00 0.000000e+00
1.613333e+00 0.000000e+00 0.000000e+00
1.620000e+00 0.000000e+00 0.000000e+00
1.626667e+00 0.000000e+00 0.000000e+00
1.633333e+00 0.000000e+00 0.000000e+00
1.640000e+00 0.000000e+00 0.000000e+00
1.646667e+00 0.000000e+00 0.000000e+00
1.653333e+00 0.000000e+00 0.000000e+00
1.660000e+00 0.000000e+00 0.000000e+00
1.666667e+00 0.000000e+00 0.000000e+00
1.673333e+00 0.000000e+00 0.000000e+00
1.680000e+00 0.000000e+00 0.000000e+00
1.686667e+00 0.000000e+00 0.000000e+00
[...]
POINT_DATA 601
SCALARS vm float 1
LOOKUP_TABLE default
-7.637218e+01
-7.637218e+01
-7.637217e+01
-7.637216e+01
-7.637215e+01
-7.637213e+01
-7.637208e+01
-7.637206e+01
-7.637203e+01
-7.637200e+01
-7.637196e+01
-7.637192e+01
-7.637188e+01
-7.637184e+01
-7.637179e+01
-7.637175e+01
-7.637169e+01
-7.637164e+01
-7.637158e+01
-7.637152e+01
-7.637146e+01
-7.637140e+01
-7.637133e+01
-7.637126e+01
-7.637119e+01
-7.637112e+01
-7.637104e+01
-7.637097e+01
-7.637089e+01
-7.637080e+01
-7.637072e+01
-7.637063e+01
-7.637054e+01
-7.637045e+01
-7.637036e+01
-7.637026e+01
-7.637017e+01
-7.637007e+01
-7.636997e+01
-7.636987e+01
-7.636976e+01
-7.636966e+01
-7.636955e+01
-7.636944e+01
-7.636933e+01
-7.636921e+01
-7.636910e+01
-7.636898e+01
-7.636886e+01
-7.636874e+01
-7.636862e+01
-7.636850e+01
-7.636837e+01
-7.636824e+01
-7.636811e+01
-7.636798e+01
-7.636785e+01
-7.636772e+01
-7.636758e+01
-7.636745e+01
-7.636731e+01
-7.636717e+01
-7.636703e+01
-7.636689e+01
-7.636674e+01
-7.636660e+01
-7.636645e+01
-7.636630e+01
-7.636615e+01
-7.636600e+01
-7.636585e+01
-7.636570e+01
-7.636554e+01
-7.636538e+01
-7.636522e+01
-7.636506e+01
-7.636490e+01
-7.636474e+01
-7.636458e+01
-7.636441e+01
-7.636424e+01
-7.636408e+01
-7.636391e+01
-7.636374e+01
-7.636356e+01
-7.636339e+01
-7.636321e+01
-7.636304e+01
-7.636286e+01
-7.636268e+01
-7.636250e+01
-7.636232e+01
-7.636213e+01
-7.636195e+01
-7.636176e+01
-7.636157e+01
-7.636138e+01
-7.636119e+01
-7.636100e+01
-7.636081e+01
-7.636061e+01
-7.636041e+01
-7.636022e+01
-7.636002e+01
-7.635981e+01
-7.635961e+01
-7.635941e+01
-7.635920e+01
-7.635899e+01
-7.635879e+01
-7.635857e+01
-7.635836e+01
-7.635815e+01
-7.635793e+01
-7.635772e+01
-7.635750e+01
-7.635728e+01
-7.635706e+01
-7.635683e+01
-7.635661e+01
-7.635638e+01
-7.635615e+01
-7.635592e+01
-7.635569e+01
-7.635545e+01
-7.635522e+01
-7.635498e+01
-7.635474e+01
-7.635450e+01
-7.635426e+01
-7.635401e+01
-7.635376e+01
-7.635352e+01
-7.635327e+01
-7.635301e+01
-7.635276e+01
-7.635250e+01
-7.635224e+01
-7.635198e+01
-7.635172e+01
-7.635145e+01
-7.635119e+01
-7.635092e+01
-7.635065e+01
-7.635037e+01
-7.635010e+01
-7.634982e+01
-7.634954e+01
-7.634926e+01
-7.634897e+01
-7.634866e+01
-7.634852e+01
-7.634842e+01
-7.634832e+01
-7.634822e+01
-7.634812e+01
-7.634801e+01
-7.634791e+01
-7.634780e+01
-7.634770e+01
-7.634759e+01
-7.634748e+01
-7.634737e+01
-7.634726e+01
-7.634715e+01
-7.634704e+01
-7.634693e+01
-7.634682e+01
-7.634670e+01
-7.634659e+01
-7.634647e+01
-7.634636e+01
-7.634624e+01
-7.634612e+01
-7.634600e+01
-7.634588e+01
-7.634576e+01
-7.634564e+01
-7.634552e+01
-7.634540e+01
-7.634528e+01
-7.634515e+01
-7.634503e+01
-7.634491e+01
-7.634478e+01
-7.634466e+01
-7.634453e+01
-7.634441e+01
-7.634428e+01
-7.634416e+01
-7.634403e+01
-7.634390e+01
-7.634378e+01
-7.634365e+01
-7.634352e+01
-7.634339e+01
-7.634327e+01
-7.634314e+01
-7.634301e+01
-7.634288e+01
-7.634275e+01
-7.634262e+01
-7.634250e+01
-7.634237e+01
-7.634224e+01
-7.634211e+01
-7.634198e+01
-7.634185e+01
-7.634172e+01
-7.634160e+01
-7.634147e+01
-7.634134e+01
-7.634121e+01
-7.634108e+01
-7.634096e+01
-7.634083e+01
-7.634070e+01
-7.634058e+01
-7.634045e+01
-7.634032e+01
-7.634020e+01
-7.634007e+01
-7.633995e+01
-7.633982e+01
-7.633970e+01
-7.633958e+01
-7.633945e+01
-7.633933e+01
-7.633921e+01
-7.633909e+01
-7.633897e+01
-7.633885e+01
-7.633873e+01
-7.633861e+01
-7.633849e+01
-7.633837e+01
-7.633826e+01
-7.633814e+01
-7.633803e+01
-7.633791e+01
-7.633780e+01
-7.633769e+01
-7.633758e+01
-7.633747e+01
-7.633736e+01
-7.633725e+01
-7.633714e+01
-7.633703e+01
-7.633693e+01
-7.633683e+01
-7.633672e+01
-7.633662e+01
-7.633652e+01
-7.633642e+01
-7.633632e+01
-7.633623e+01
-7.633613e+01
-7.633604e+01
-7.633595e+01
-7.633586e+01
-7.633577e+01
-7.633568e+01
-7.633559e+01
-7.633551e+01
-7.633543e+01
-7.633535e+01
-7.633527e+01
-7.633519e+01
-7.633511e+01
-7.633504e+01
-7.633497e+01
-7.633490e+01
-7.633483e+01
-7.633476e+01
-7.633470e+01
-7.633464e+01
-7.633458e+01
-7.633452e+01
-7.633446e+01
-7.633441e+01
-7.633436e+01
-7.633431e+01
-7.633426e+01
-7.633422e+01
-7.633418e+01
-7.633414e+01
-7.633410e+01
-7.633407e+01
-7.633403e+01
-7.633400e+01
-7.633398e+01
-7.633395e+01
-7.633393e+01
-7.633391e+01
-7.633389e+01
-7.633388e+01
-7.633387e+01
-7.633386e+01
-7.633385e+01
-7.633385e+01
-7.633384e+01
-7.634852e+01
-7.634842e+01
-7.634832e+01
-7.634822e+01
-7.634812e+01
-7.634801e+01
-7.634791e+01
-7.634780e+01
-7.634770e+01
-7.634759e+01
-7.634748e+01
-7.634737e+01
-7.634726e+01
-7.634715e+01
-7.634704e+01
-7.634693e+01
-7.634682e+01
-7.634670e+01
-7.634659e+01
-7.634647e+01
-7.634636e+01
-7.634624e+01
-7.634612e+01
-7.634600e+01
-7.634588e+01
-7.634576e+01
-7.634564e+01
-7.634552e+01
-7.634540e+01
-7.634528e+01
-7.634515e+01
-7.634503e+01
-7.634491e+01
-7.634478e+01
-7.634466e+01
-7.634453e+01
-7.634441e+01
-7.634428e+01
-7.634416e+01
-7.634403e+01
-7.634390e+01
-7.634378e+01
-7.634365e+01
-7.634352e+01
-7.634339e+01
-7.634327e+01
-7.634314e+01
-7.634301e+01
-7.634288e+01
-7.634275e+01
-7.634262e+01
-7.634250e+01
-7.634237e+01
-7.634224e+01
-7.634211e+01
-7.634198e+01
-7.634185e+01
-7.634172e+01
-7.634160e+01
-7.634147e+01
-7.634134e+01
-7.634121e+01
-7.634108e+01
-7.634096e+01
-7.634083e+01
-7.634070e+01
-7.634058e+01
-7.634045e+01
-7.634032e+01
-7.634020e+01
-7.634007e+01
-7.633995e+01
-7.633982e+01
-7.633970e+01
-7.633958e+01
-7.633945e+01
-7.633933e+01
-7.633921e+01
-7.633909e+01
-7.633897e+01
-7.633885e+01
-7.633873e+01
-7.633861e+01
-7.633849e+01
-7.633837e+01
-7.633826e+01
-7.633814e+01
-7.633803e+01
-7.633791e+01
-7.633780e+01
-7.633769e+01
-7.633758e+01
-7.633747e+01
-7.633736e+01
-7.633725e+01
-7.633714e+01
-7.633703e+01
-7.633693e+01
-7.633683e+01
-7.633672e+01
-7.633662e+01
-7.633652e+01
-7.633642e+01
-7.633632e+01
-7.633623e+01
-7.633613e+01
-7.633604e+01
-7.633595e+01
-7.633586e+01
-7.633577e+01
-7.633568e+01
-7.633559e+01
-7.633551e+01
-7.633543e+01
-7.633535e+01
-7.633527e+01
-7.633519e+01
-7.633511e+01
-7.633504e+01
-7.633497e+01
-7.633490e+01
-7.633483e+01
-7.633476e+01
-7.633470e+01
-7.633464e+01
-7.633458e+01
-7.633452e+01
-7.633446e+01
-7.633441e+01
-7.633436e+01
-7.633431e+01
-7.633426e+01
-7.633422e+01
-7.633418e+01
-7.633414e+01
-7.633410e+01
-7.633407e+01
-7.633403e+01
-7.633400e+01
-7.633398e+01
-7.633395e+01
-7.633393e+01
-7.633391e+01
-7.633389e+01
-7.633388e+01
-7.633387e+01
-7.633386e+01
-7.633385e+01
-7.633385e+01
-7.633384e+01
-7.634852e+01
-7.634842e+01
-7.634832e+01
-7.634822e+01
-7.634812e+01
-7.634801e+01
-7.634791e+01
-7.634780e+01
-7.634770e+01
-7.634759e+01
-7.634748e+01
-7.634737e+01
-7.634726e+01
-7.634715e+01
-7.634704e+01
-7.634693e+01
-7.634682e+01
-7.634670e+01
-7.634659e+01
-7.634647e+01
-7.634636e+01
-7.634624e+01
-7.634612e+01
-7.634600e+01
-7.634588e+01
-7.634576e+01
-7.634564e+01
-7.634552e+01
-7.634540e+01
-7.634528e+01
-7.634515e+01
-7.634503e+01
-7.634491e+01
-7.634478e+01
-7.634466e+01
-7.634453e+01
-7.634441e+01
-7.634428e+01
-7.634416e+01
-7.634403e+01
-7.634390e+01
-7.634378e+01
-7.634365e+01
-7.634352e+01
-7.634339e+01
-7.634327e+01
-7.634314e+01
-7.634301e+01
-7.634288e+01
-7.634275e+01
-7.634262e+01
-7.634250e+01
-7.634237e+01
-7.634224e+01
-7.634211e+01
-7.634198e+01
-7.634185e+01
-7.634172e+01
-7.634160e+01
-7.634147e+01
-7.634134e+01
-7.634121e+01
-7.634108e+01
-7.634096e+01
-7.634083e+01
-7.634070e+01
-7.634058e+01
-7.634045e+01
-7.634032e+01
-7.634020e+01
-7.634007e+01
-7.633995e+01
-7.633982e+01
-7.633970e+01
-7.633958e+01
-7.633945e+01
-7.633933e+01
-7.633921e+01
-7.633909e+01
-7.633897e+01
-7.633885e+01
-7.633873e+01
-7.633861e+01
-7.633849e+01
-7.633837e+01
-7.633826e+01
-7.633814e+01
-7.633803e+01
-7.633791e+01
-7.633780e+01
-7.633769e+01
-7.633758e+01
-7.633747e+01
-7.633736e+01
-7.633725e+01
-7.633714e+01
-7.633703e+01
-7.633693e+01
-7.633683e+01
-7.633672e+01
-7.633662e+01
-7.633652e+01
-7.633642e+01
-7.633632e+01
-7.633623e+01
-7.633613e+01
-7.633604e+01
-7.633595e+01
-7.633586e+01
-7.633577e+01
-7.633568e+01
-7.633559e+01
-7.633551e+01
-7.633543e+01
-7.633535e+01
-7.633527e+01
-7.633519e+01
-7.633511e+01
-7.633504e+01
-7.633497e+01
-7.633490e+01
-7.633483e+01
-7.633476e+01
-7.633470e+01
-7.633464e+01
-7.633458e+01
-7.633452e+01
-7.633446e+01
-7.633441e+01
-7.633436e+01
-7.633431e+01
-7.633426e+01
-7.633422e+01
-7.633418e+01
-7.633414e+01
-7.633410e+01
-7.633407e+01
-7.633403e+01
-7.633400e+01
-7.633398e+01
-7.633395e+01
-7.633393e+01
-7.633391e+01
-7.633389e+01
-7.633388e+01
-7.633387e+01
-7.633386e+01
-7.633385e+01
-7.633385e+01
-7.633384e+01
