# vtk DataFile Version 3.0
Monodomain FEM
ASCII
DATASET POLYDATA
POINTS 601 float
0.000000e+00 0.000000e+00 0.000000e+00
6.667000e-03 0.000000e+00 0.000000e+00
1.333300e-02 0.000000e+00 0.000000e+00
2.000000e-02 0.000000e+00 0.000000e+00
2.666700e-02 0.000000e+00 0.000000e+00
3.333300e-02 0.000000e+00 0.000000e+00
4.000000e-02 0.000000e+00 0.000000e+00
4.666700e-02 0.000000e+00 0.000000e+00
5.333300e-02 0.000000e+00 0.000000e+00
6.000000e-02 0.000000e+00 0.000000e+00
6.666700e-02 0.000000e+00 0.000000e+00
7.333300e-02 0.000000e+00 0.000000e+00
8.000000e-02 0.000000e+00 0.000000e+00
8.666700e-02 0.000000e+00 0.000000e+00
9.333300e-02 0.000000e+00 0.000000e+00
1.000000e-01 0.000000e+00 0.000000e+00
1.066670e-01 0.000000e+00 0.000000e+00
1.133330e-01 0.000000e+00 0.000000e+00
1.200000e-01 0.000000e+00 0.000000e+00
1.266670e-01 0.000000e+00 0.000000e+00
1.333330e-01 0.000000e+00 0.000000e+00
1.400000e-01 0.000000e+00 0.000000e+00
1.466670e-01 0.000000e+00 0.000000e+00
1.533330e-01 0.000000e+00 0.000000e+00
1.600000e-01 0.000000e+00 0.000000e+00
1.666670e-01 0.000000e+00 0.000000e+00
1.733330e-01 0.000000e+00 0.000000e+00
1.800000e-01 0.000000e+00 0.000000e+00
1.866670e-01 0.000000e+00 0.000000e+00
1.933330e-01 0.000000e+00 0.000000e+00
2.000000e-01 0.000000e+00 0.000000e+00
2.066670e-01 0.000000e+00 0.000000e+00
2.133330e-01 0.000000e+00 0.000000e+00
2.200000e-01 0.000000e+00 0.000000e+00
2.266670e-01 0.000000e+00 0.000000e+00
2.333330e-01 0.000000e+00 0.000000e+00
2.400000e-01 0.000000e+00 0.000000e+00
2.466670e-01 0.000000e+00 0.000000e+00
2.533330e-01 0.000000e+00 0.000000e+00
2.600000e-01 0.000000e+00 0.000000e+00
2.666670e-01 0.000000e+00 0.000000e+00
2.733330e-01 0.000000e+00 0.000000e+00
2.800000e-01 0.000000e+00 0.000000e+00
2.866670e-01 0.000000e+00 0.000000e+00
2.933330e-01 0.000000e+00 0.000000e+00
3.000000e-01 0.000000e+00 0.000000e+00
3.066670e-01 0.000000e+00 0.000000e+00
3.133330e-01 0.000000e+00 0.000000e+00
3.200000e-01 0.000000e+00 0.000000e+00
3.266670e-01 0.000000e+00 0.000000e+00
3.333330e-01 0.000000e+00 0.000000e+00
3.400000e-01 0.000000e+00 0.000000e+00
3.466670e-01 0.000000e+00 0.000000e+00
3.533330e-01 0.000000e+00 0.000000e+00
3.600000e-01 0.000000e+00 0.000000e+00
3.666670e-01 0.000000e+00 0.000000e+00
3.733330e-01 0.000000e+00 0.000000e+00
3.800000e-01 0.000000e+00 0.000000e+00
3.866670e-01 0.000000e+00 0.000000e+00
3.933330e-01 0.000000e+00 0.000000e+00
4.000000e-01 0.000000e+00 0.000000e+00
4.066670e-01 0.000000e+00 0.000000e+00
4.133330e-01 0.000000e+00 0.000000e+00
4.200000e-01 0.000000e+00 0.000000e+00
4.266670e-01 0.000000e+00 0.000000e+00
4.333330e-01 0.000000e+00 0.000000e+00
4.400000e-01 0.000000e+00 0.000000e+00
4.466670e-01 0.000000e+00 0.000000e+00
4.533330e-01 0.000000e+00 0.000000e+00
4.600000e-01 0.000000e+00 0.000000e+00
4.666670e-01 0.000000e+00 0.000000e+00
4.733330e-01 0.000000e+00 0.000000e+00
4.800000e-01 0.000000e+00 0.000000e+00
4.866670e-01 0.000000e+00 0.000000e+00
4.933330e-01 0.000000e+00 0.000000e+00
5.000000e-01 0.000000e+00 0.000000e+00
5.066670e-01 0.000000e+00 0.000000e+00
5.133330e-01 0.000000e+00 0.000000e+00
5.200000e-01 0.000000e+00 0.000000e+00
5.266670e-01 0.000000e+00 0.000000e+00
5.333330e-01 0.000000e+00 0.000000e+00
5.400000e-01 0.000000e+00 0.000000e+00
5.466670e-01 0.000000e+00 0.000000e+00
5.533330e-01 0.000000e+00 0.000000e+00
5.600000e-01 0.000000e+00 0.000000e+00
5.666670e-01 0.000000e+00 0.000000e+00
5.733330e-01 0.000000e+00 0.000000e+00
5.800000e-01 0.000000e+00 0.000000e+00
5.866670e-01 0.000000e+00 0.000000e+00
5.933330e-01 0.000000e+00 0.000000e+00
6.000000e-01 0.000000e+00 0.000000e+00
6.066670e-01 0.000000e+00 0.000000e+00
6.133330e-01 0.000000e+00 0.000000e+00
6.200000e-01 0.000000e+00 0.000000e+00
6.266670e-01 0.000000e+00 0.000000e+00
6.333330e-01 0.000000e+00 0.000000e+00
6.400000e-01 0.000000e+00 0.000000e+00
6.466670e-01 0.000000e+00 0.000000e+00
6.533330e-01 0.000000e+00 0.000000e+00
6.600000e-01 0.000000e+00 0.000000e+00
6.666670e-01 0.000000e+00 0.000000e+00
6.733330e-01 0.000000e+00 0.000000e+00
6.800000e-01 0.000000e+00 0.000000e+00
6.866670e-01 0.000000e+00 0.000000e+00
6.933330e-01 0.000000e+00 0.000000e+00
7.000000e-01 0.000000e+00 0.000000e+00
7.066670e-01 0.000000e+00 0.000000e+00
7.133330e-01 0.000000e+00 0.000000e+00
7.200000e-01 0.000000e+00 0.000000e+00
7.266670e-01 0.000000e+00 0.000000e+00
7.333330e-01 0.000000e+00 0.000000e+00
7.400000e-01 0.000000e+00 0.000000e+00
7.466670e-01 0.000000e+00 0.000000e+00
7.533330e-01 0.000000e+00 0.000000e+00
7.600000e-01 0.000000e+00 0.000000e+00
7.666670e-01 0.000000e+00 0.000000e+00
7.733330e-01 0.000000e+00 0.000000e+00
7.800000e-01 0.000000e+00 0.000000e+00
7.866670e-01 0.000000e+00 0.000000e+00
7.933330e-01 0.000000e+00 0.000000e+00
8.000000e-01 0.000000e+00 0.000000e+00
8.066670e-01 0.000000e+00 0.000000e+00
8.133330e-01 0.000000e+00 0.000000e+00
8.200000e-01 0.000000e+00 0.000000e+00
8.266670e-01 0.000000e+00 0.000000e+00
8.333330e-01 0.000000e+00 0.000000e+00
8.400000e-01 0.000000e+00 0.000000e+00
8.466670e-01 0.000000e+00 0.000000e+00
8.533330e-01 0.000000e+00 0.000000e+00
8.600000e-01 0.000000e+00 0.000000e+00
8.666670e-01 0.000000e+00 0.000000e+00
8.733330e-01 0.000000e+00 0.000000e+00
8.800000e-01 0.000000e+00 0.000000e+00
8.866670e-01 0.000000e+00 0.000000e+00
8.933330e-01 0.000000e+00 0.000000e+00
9.000000e-01 0.000000e+00 0.000000e+00
9.066670e-01 0.000000e+00 0.000000e+00
9.133330e-01 0.000000e+00 0.000000e+00
9.200000e-01 0.000000e+00 0.000000e+00
9.266670e-01 0.000000e+00 0.000000e+00
9.333330e-01 0.000000e+00 0.000000e+00
9.400000e-01 0.000000e+00 0.000000e+00
9.466670e-01 0.000000e+00 0.000000e+00
9.533330e-01 0.000000e+00 0.000000e+00
9.600000e-01 0.000000e+00 0.000000e+00
9.666670e-01 0.000000e+00 0.000000e+00
9.733330e-01 0.000000e+00 0.000000e+00
9.800000e-01 0.000000e+00 0.000000e+00
9.866670e-01 0.000000e+00 0.000000e+00
9.933330e-01 0.000000e+00 0.000000e+00
1.000000e+00 0.000000e+00 0.000000e+00
1.006667e+00 0.000000e+00 0.000000e+00
1.013333e+00 0.000000e+00 0.000000e+00
1.020000e+00 0.000000e+00 0.000000e+00
1.026667e+00 0.000000e+00 0.000000e+00
1.033333e+00 0.000000e+00 0.000000e+00
1.040000e+00 0.000000e+00 0.000000e+00
1.046667e+00 0.000000e+00 0.000000e+00
1.053333e+00 0.000000e+00 0.000000e+00
1.060000e+00 0.000000e+00 0.000000e+00
1.066667e+00 0.000000e+00 0.000000e+00
1.073333e+00 0.000000e+00 0.000000e+00
1.080000e+00 0.000000e+00 0.000000e+00
1.086667e+00 0.000000e+00 0.000000e+00
1.093333e+00 0.000000e+00 0.000000e+00
1.100000e+00 0.000000e+00 0.000000e+00
1.106667e+00 0.000000e+00 0.000000e+00
1.113333e+00 0.000000e+00 0.000000e+00
1.120000e+00 0.000000e+00 0.000000e+00
1.126667e+00 0.000000e+00 0.000000e+00
1.133333e+00 0.000000e+00 0.000000e+00
1.140000e+00 0.000000e+00 0.000000e+00
1.146667e+00 0.000000e+00 0.000000e+00
1.153333e+00 0.000000e+00 0.000000e+00
1.160000e+00 0.000000e+00 0.000000e+00
1.166667e+00 0.000000e+00 0.000000e+00
1.173333e+00 0.000000e+00 0.000000e+00
1.180000e+00 0.000000e+00 0.000000e+00
1.186667e+00 0.000000e+00 0.000000e+00
1.193333e+00 0.000000e+00 0.000000e+00
1.200000e+00 0.000000e+00 0.000000e+00
1.206667e+00 0.000000e+00 0.000000e+00
1.213333e+00 0.000000e+00 0.000000e+00
1.220000e+00 0.000000e+00 0.000000e+00
1.226667e+00 0.000000e+00 0.000000e+00
1.233333e+00 0.000000e+00 0.000000e+00
1.240000e+00 0.000000e+00 0.000000e+00
1.246667e+00 0.000000e+00 0.000000e+00
1.253333e+00 0.000000e+00 0.000000e+00
1.260000e+00 0.000000e+00 0.000000e+00
1.266667e+00 0.000000e+00 0.000000e+00
1.273333e+00 0.000000e+00 0.000000e+00
1.280000e+00 0.000000e+00 0.000000e+00
1.286667e+00 0.000000e+00 0.000000e+00
1.293333e+00 0.000000e+00 0.000000e+00
1.300000e+00 0.000000e+00 0.000000e+00
1.306667e+00 0.000000e+00 0.000000e+00
1.313333e+00 0.000000e+00 0.000000e+00
1.320000e+00 0.000000e+00 0.000000e+00
1.326667e+00 0.000000e+00 0.000000e+00
1.333333e+00 0.000000e+00 0.000000e+00
1.340000e+00 0.000000e+00 0.000000e+00
1.346667e+00 0.000000e+00 0.000000e+00
1.353333e+00 0.000000e+00 0.000000e+00
1.360000e+00 0.000000e+00 0.000000e+00
1.366667e+00 0.000000e+00 0.000000e+00
1.373333e+00 0.000000e+00 0.000000e+00
1.380000e+00 0.000000e+00 0.000000e+00
1.386667e+00 0.000000e+00 0.000000e+00
1.393333e+00 0.000000e+00 0.000000e+00
1.400000e+00 0.000000e+00 0.000000e+00
1.406667e+00 0.000000e+00 0.000000e+00
1.413333e+00 0.000000e+00 0.000000e+00
1.420000e+00 0.000000e+00 0.000000e+00
1.426667e+00 0.000000e+00 0.000000e+00
1.433333e+00 0.000000e+00 0.000000e+00
1.440000e+00 0.000000e+00 0.000000e+00
1.446667e+00 0.000000e+00 0.000000e+00
1.453333e+00 0.000000e+00 0.000000e+00
1.460000e+00 0.000000e+00 0.000000e+00
1.466667e+00 0.000000e+00 0.000000e+00
1.473333e+00 0.000000e+00 0.000000e+00
1.480000e+00 0.000000e+00 0.000000e+00
1.486667e+00 0.000000e+00 0.000000e+00
1.493333e+00 0.000000e+00 0.000000e+00
1.500000e+00 0.000000e+00 0.000000e+00
1.506667e+00 0.000000e+00 0.000000e+00
1.513333e+00 0.000000e+00 0.000000e+00
1.520000e+00 0.000000e+00 0.000000e+00
1.526667e+00 0.000000e+00 0.000000e+00
1.533333e+00 0.000000e+00 0.000000e+00
1.540000e+00 0.000000e+00 0.000000e+00
1.546667e+00 0.000000e+00 0.000000e+00
1.553333e+00 0.000000e+00 0.000000e+00
1.560000e+00 0.000000e+00 0.000000e+00
1.566667e+00 0.000000e+00 0.000000e+00
1.573333e+00 0.000000e+00 0.000000e+00
1.580000e+00 0.000000e+00 0.000000e+00
1.586667e+00 0.000000e+00 0.000000e+00
1.593333e+00 0.000000e+00 0.000000e+00
1.600000e+00 0.000000e+00 0.000000e+00
1.606667e+00 0.000000e+00 0.000000e+00
1.613333e+00 0.000000e+00 0.000000e+00
1.620000e+00 0.000000e+00 0.000000e+00
1.626667e+00 0.000000e+00 0.000000e+00
1.633333e+00 0.000000e+00 0.000000e+00
1.640000e+00 0.000000e+00 0.000000e+00
1.646667e+00 0.000000e+00 0.000000e+00
1.653333e+00 0.000000e+00 0.000000e+00
1.660000e+00 0.000000e+00 0.000000e+00
1.666667e+00 0.000000e+00 0.000000e+00
1.673333e+00 0.000000e+00 0.000000e+00
1.680000e+00 0.000000e+00 0.000000e+00
1.686667e+00 0.000000e+00 0.000000e+00
[...]
POINT_DATA 601
SCALARS vm float 1
LOOKUP_TABLE default
-7.597484e+00
-7.597432e+00
-7.597275e+00
-7.597014e+00
-7.596650e+00
-7.596186e+00
-7.595165e+00
-7.594580e+00
-7.593929e+00
-7.593213e+00
-7.592434e+00
-7.591593e+00
-7.590692e+00
-7.589731e+00
-7.588711e+00
-7.587634e+00
-7.586501e+00
-7.585312e+00
-7.584069e+00
-7.582773e+00
-7.581425e+00
-7.580026e+00
-7.578576e+00
-7.577076e+00
-7.575528e+00
-7.573932e+00
-7.572289e+00
-7.570599e+00
-7.568865e+00
-7.567085e+00
-7.565262e+00
-7.563395e+00
-7.561486e+00
-7.559535e+00
-7.557543e+00
-7.555510e+00
-7.553438e+00
-7.551326e+00
-7.549176e+00
-7.546988e+00
-7.544762e+00
-7.542499e+00
-7.540200e+00
-7.537865e+00
-7.535494e+00
-7.533089e+00
-7.530649e+00
-7.528176e+00
-7.525669e+00
-7.523129e+00
-7.520556e+00
-7.517951e+00
-7.515314e+00
-7.512646e+00
-7.509946e+00
-7.507216e+00
-7.504455e+00
-7.501664e+00
-7.498844e+00
-7.495993e+00
-7.493114e+00
-7.490205e+00
-7.487268e+00
-7.484302e+00
-7.481308e+00
-7.478286e+00
-7.475236e+00
-7.472158e+00
-7.469053e+00
-7.465920e+00
-7.462760e+00
-7.459573e+00
-7.456359e+00
-7.453118e+00
-7.449850e+00
-7.446556e+00
-7.443234e+00
-7.439887e+00
-7.436512e+00
-7.433111e+00
-7.429684e+00
-7.426230e+00
-7.422750e+00
-7.419243e+00
-7.415710e+00
-7.412150e+00
-7.408564e+00
-7.404951e+00
-7.401311e+00
-7.397645e+00
-7.393951e+00
-7.390231e+00
-7.386483e+00
-7.382708e+00
-7.378906e+00
-7.375076e+00
-7.371218e+00
-7.367333e+00
-7.363419e+00
-7.359478e+00
-7.355507e+00
-7.351508e+00
-7.347480e+00
-7.343423e+00
-7.339337e+00
-7.335221e+00
-7.331075e+00
-7.326898e+00
-7.322691e+00
-7.318454e+00
-7.314185e+00
-7.309885e+00
-7.305552e+00
-7.301188e+00
-7.296792e+00
-7.292362e+00
-7.287899e+00
-7.283403e+00
-7.278872e+00
-7.274308e+00
-7.269708e+00
-7.265073e+00
-7.260403e+00
-7.255696e+00
-7.250953e+00
-7.246173e+00
-7.241356e+00
-7.236501e+00
-7.231607e+00
-7.226675e+00
-7.221703e+00
-7.216692e+00
-7.211640e+00
-7.206547e+00
-7.201413e+00
-7.196238e+00
-7.191019e+00
-7.185758e+00
-7.180453e+00
-7.175104e+00
-7.169709e+00
-7.164269e+00
-7.158781e+00
-7.153246e+00
-7.147661e+00
-7.142026e+00
-7.136338e+00
-7.130596e+00
-7.124790e+00
-7.118873e+00
-7.112561e+00
-7.109767e+00
-7.107616e+00
-7.105554e+00
-7.103488e+00
-7.101402e+00
-7.099293e+00
-7.097161e+00
-7.095008e+00
-7.092834e+00
-7.090639e+00
-7.088425e+00
-7.086191e+00
-7.083938e+00
-7.081667e+00
-7.079378e+00
-7.077072e+00
-7.074749e+00
-7.072410e+00
-7.070056e+00
-7.067686e+00
-7.065301e+00
-7.062902e+00
-7.060489e+00
-7.058063e+00
-7.055624e+00
-7.053172e+00
-7.050709e+00
-7.048234e+00
-7.045749e+00
-7.043252e+00
-7.040746e+00
-7.038230e+00
-7.035705e+00
-7.033172e+00
-7.030630e+00
-7.028080e+00
-7.025523e+00
-7.022959e+00
-7.020389e+00
-7.017813e+00
-7.015231e+00
-7.012644e+00
-7.010052e+00
-7.007456e+00
-7.004857e+00
-7.002254e+00
-6.999648e+00
-6.997039e+00
-6.994429e+00
-6.991817e+00
-6.989203e+00
-6.986589e+00
-6.983975e+00
-6.981360e+00
-6.978747e+00
-6.976134e+00
-6.973522e+00
-6.970913e+00
-6.968305e+00
-6.965701e+00
-6.963099e+00
-6.960501e+00
-6.957908e+00
-6.955318e+00
-6.952734e+00
-6.950155e+00
-6.947582e+00
-6.945015e+00
-6.942455e+00
-6.939903e+00
-6.937358e+00
-6.934821e+00
-6.932292e+00
-6.929773e+00
-6.927264e+00
-6.924765e+00
-6.922276e+00
-6.919798e+00
-6.917332e+00
-6.914878e+00
-6.912437e+00
-6.910009e+00
-6.907594e+00
-6.905193e+00
-6.902808e+00
-6.900437e+00
-6.898082e+00
-6.895744e+00
-6.893422e+00
-6.891118e+00
-6.888832e+00
-6.886565e+00
-6.884316e+00
-6.882088e+00
-6.879879e+00
-6.877692e+00
-6.875526e+00
-6.873383e+00
-6.871262e+00
-6.869165e+00
-6.867091e+00
-6.865043e+00
-6.863020e+00
-6.861023e+00
-6.859052e+00
-6.857110e+00
-6.855195e+00
-6.853309e+00
-6.851453e+00
-6.849627e+00
-6.847832e+00
-6.846068e+00
-6.844337e+00
-6.842640e+00
-6.840976e+00
-6.839347e+00
-6.837754e+00
-6.836196e+00
-6.834676e+00
-6.833194e+00
-6.831751e+00
-6.830347e+00
-6.828983e+00
-6.827661e+00
-6.826380e+00
-6.825142e+00
-6.823948e+00
-6.822798e+00
-6.821692e+00
-6.820633e+00
-6.819621e+00
-6.818655e+00
-6.817738e+00
-6.816869e+00
-6.816050e+00
-6.815280e+00
-6.814562e+00
-6.813894e+00
-6.813278e+00
-6.812713e+00
-6.812202e+00
-6.811743e+00
-6.811337e+00
-6.810985e+00
-6.810687e+00
-6.810442e+00
-6.810252e+00
-6.810116e+00
-6.810034e+00
-6.810007e+00
-7.109767e+00
-7.107616e+00
-7.105554e+00
-7.103488e+00
-7.101402e+00
-7.099293e+00
-7.097161e+00
-7.095008e+00
-7.092834e+00
-7.090639e+00
-7.088425e+00
-7.086191e+00
-7.083938e+00
-7.081667e+00
-7.079378e+00
-7.077072e+00
-7.074749e+00
-7.072410e+00
-7.070056e+00
-7.067686e+00
-7.065301e+00
-7.062902e+00
-7.060489e+00
-7.058063e+00
-7.055624e+00
-7.053172e+00
-7.050709e+00
-7.048234e+00
-7.045749e+00
-7.043252e+00
-7.040746e+00
-7.038230e+00
-7.035705e+00
-7.033172e+00
-7.030630e+00
-7.028080e+00
-7.025523e+00
-7.022959e+00
-7.020389e+00
-7.017813e+00
-7.015231e+00
-7.012644e+00
-7.010052e+00
-7.007456e+00
-7.004857e+00
-7.002254e+00
-6.999648e+00
-6.997039e+00
-6.994429e+00
-6.991817e+00
-6.989203e+00
-6.986589e+00
-6.983975e+00
-6.981360e+00
-6.978747e+00
-6.976134e+00
-6.973522e+00
-6.970913e+00
-6.968305e+00
-6.965701e+00
-6.963099e+00
-6.960501e+00
-6.957908e+00
-6.955318e+00
-6.952734e+00
-6.950155e+00
-6.947582e+00
-6.945015e+00
-6.942455e+00
-6.939903e+00
-6.937358e+00
-6.934821e+00
-6.932292e+00
-6.929773e+00
-6.927264e+00
-6.924765e+00
-6.922276e+00
-6.919798e+00
-6.917332e+00
-6.914878e+00
-6.912437e+00
-6.910009e+00
-6.907594e+00
-6.905193e+00
-6.902808e+00
-6.900437e+00
-6.898082e+00
-6.895744e+00
-6.893422e+00
-6.891118e+00
-6.888832e+00
-6.886565e+00
-6.884316e+00
-6.882088e+00
-6.879879e+00
-6.877692e+00
-6.875526e+00
-6.873383e+00
-6.871262e+00
-6.869165e+00
-6.867091e+00
-6.865043e+00
-6.863020e+00
-6.861023e+00
-6.859052e+00
-6.857110e+00
-6.855195e+00
-6.853309e+00
-6.851453e+00
-6.849627e+00
-6.847832e+00
-6.846068e+00
-6.844337e+00
-6.842640e+00
-6.840976e+00
-6.839347e+00
-6.837754e+00
-6.836196e+00
-6.834676e+00
-6.833194e+00
-6.831751e+00
-6.830347e+00
-6.828983e+00
-6.827661e+00
-6.826380e+00
-6.825142e+00
-6.823948e+00
-6.822798e+00
-6.821692e+00
-6.820633e+00
-6.819621e+00
-6.818655e+00
-6.817738e+00
-6.816869e+00
-6.816050e+00
-6.815280e+00
-6.814562e+00
-6.813894e+00
-6.813278e+00
-6.812713e+00
-6.812202e+00
-6.811743e+00
-6.811337e+00
-6.810985e+00
-6.810687e+00
-6.810442e+00
-6.810252e+00
-6.810116e+00
-6.810034e+00
-6.810007e+00
-7.109767e+00
-7.107616e+00
-7.105554e+00
-7.103488e+00
-7.101402e+00
-7.099293e+00
-7.097161e+00
-7.095008e+00
-7.092834e+00
-7.090639e+00
-7.088425e+00
-7.086191e+00
-7.083938e+00
-7.081667e+00
-7.079378e+00
-7.077072e+00
-7.074749e+00
-7.072410e+00
-7.070056e+00
-7.067686e+00
-7.065301e+00
-7.062902e+00
-7.060489e+00
-7.058063e+00
-7.055624e+00
-7.053172e+00
-7.050709e+00
-7.048234e+00
-7.045749e+00
-7.043252e+00
-7.040746e+00
-7.038230e+00
-7.035705e+00
-7.033172e+00
-7.030630e+00
-7.028080e+00
-7.025523e+00
-7.022959e+00
-7.020389e+00
-7.017813e+00
-7.015231e+00
-7.012644e+00
-7.010052e+00
-7.007456e+00
-7.004857e+00
-7.002254e+00
-6.999648e+00
-6.997039e+00
-6.994429e+00
-6.991817e+00
-6.989203e+00
-6.986589e+00
-6.983975e+00
-6.981360e+00
-6.978747e+00
-6.976134e+00
-6.973522e+00
-6.970913e+00
-6.968305e+00
-6.965701e+00
-6.963099e+00
-6.960501e+00
-6.957908e+00
-6.955318e+00
-6.952734e+00
-6.950155e+00
-6.947582e+00
-6.945015e+00
-6.942455e+00
-6.939903e+00
-6.937358e+00
-6.934821e+00
-6.932292e+00
-6.929773e+00
-6.927264e+00
-6.924765e+00
-6.922276e+00
-6.919798e+00
-6.917332e+00
-6.914878e+00
-6.912437e+00
-6.910009e+00
-6.907594e+00
-6.905193e+00
-6.902808e+00
-6.900437e+00
-6.898082e+00
-6.895744e+00
-6.893422e+00
-6.891118e+00
-6.888832e+00
-6.886565e+00
-6.884316e+00
-6.882088e+00
-6.879879e+00
-6.877692e+00
-6.875526e+00
-6.873383e+00
-6.871262e+00
-6.869165e+00
-6.867091e+00
-6.865043e+00
-6.863020e+00
-6.861023e+00
-6.859052e+00
-6.857110e+00
-6.855195e+00
-6.853309e+00
-6.851453e+00
-6.849627e+00
-6.847832e+00
-6.846068e+00
-6.844337e+00
-6.842640e+00
-6.840976e+00
-6.839347e+00
-6.837754e+00
-6.836196e+00
-6.834676e+00
-6.833194e+00
-6.831751e+00
-6.830347e+00
-6.828983e+00
-6.827661e+00
-6.826380e+00
-6.825142e+00
-6.823948e+00
-6.822798e+00
-6.821692e+00
-6.820633e+00
-6.819621e+00
-6.818655e+00
-6.817738e+00
-6.816869e+00
-6.816050e+00
-6.815280e+00
-6.814562e+00
-6.813894e+00
-6.813278e+00
-6.812713e+00
-6.812202e+00
-6.811743e+00
-6.811337e+00
-6.810985e+00
-6.810687e+00
-6.810442e+00
-6.810252e+00
-6.810116e+00
-6.810034e+00
-6.810007e+00
