# vtk DataFile Version 3.0
Monodomain FEM
ASCII
DATASET POLYDATA
POINTS 601 float
0.000000e+00 0.000000e+00 0.000000e+00
6.667000e-03 0.000000e+00 0.000000e+00
1.333300e-02 0.000000e+00 0.000000e+00
2.000000e-02 0.000000e+00 0.000000e+00
2.666700e-02 0.000000e+00 0.000000e+00
3.333300e-02 0.000000e+00 0.000000e+00
4.000000e-02 0.000000e+00 0.000000e+00
4.666700e-02 0.000000e+00 0.000000e+00
5.333300e-02 0.000000e+00 0.000000e+00
6.000000e-02 0.000000e+00 0.000000e+00
6.666700e-02 0.000000e+00 0.000000e+00
7.333300e-02 0.000000e+00 0.000000e+00
8.000000e-02 0.000000e+00 0.000000e+00
8.666700e-02 0.000000e+00 0.000000e+00
9.333300e-02 0.000000e+00 0.000000e+00
1.000000e-01 0.000000e+00 0.000000e+00
1.066670e-01 0.000000e+00 0.000000e+00
1.133330e-01 0.000000e+00 0.000000e+00
1.200000e-01 0.000000e+00 0.000000e+00
1.266670e-01 0.000000e+00 0.000000e+00
1.333330e-01 0.000000e+00 0.000000e+00
1.400000e-01 0.000000e+00 0.000000e+00
1.466670e-01 0.000000e+00 0.000000e+00
1.533330e-01 0.000000e+00 0.000000e+00
1.600000e-01 0.000000e+00 0.000000e+00
1.666670e-01 0.000000e+00 0.000000e+00
1.733330e-01 0.000000e+00 0.000000e+00
1.800000e-01 0.000000e+00 0.000000e+00
1.866670e-01 0.000000e+00 0.000000e+00
1.933330e-01 0.000000e+00 0.000000e+00
2.000000e-01 0.000000e+00 0.000000e+00
2.066670e-01 0.000000e+00 0.000000e+00
2.133330e-01 0.000000e+00 0.000000e+00
2.200000e-01 0.000000e+00 0.000000e+00
2.266670e-01 0.000000e+00 0.000000e+00
2.333330e-01 0.000000e+00 0.000000e+00
2.400000e-01 0.000000e+00 0.000000e+00
2.466670e-01 0.000000e+00 0.000000e+00
2.533330e-01 0.000000e+00 0.000000e+00
2.600000e-01 0.000000e+00 0.000000e+00
2.666670e-01 0.000000e+00 0.000000e+00
2.733330e-01 0.000000e+00 0.000000e+00
2.800000e-01 0.000000e+00 0.000000e+00
2.866670e-01 0.000000e+00 0.000000e+00
2.933330e-01 0.000000e+00 0.000000e+00
3.000000e-01 0.000000e+00 0.000000e+00
3.066670e-01 0.000000e+00 0.000000e+00
3.133330e-01 0.000000e+00 0.000000e+00
3.200000e-01 0.000000e+00 0.000000e+00
3.266670e-01 0.000000e+00 0.000000e+00
3.333330e-01 0.000000e+00 0.000000e+00
3.400000e-01 0.000000e+00 0.000000e+00
3.466670e-01 0.000000e+00 0.000000e+00
3.533330e-01 0.000000e+00 0.000000e+00
3.600000e-01 0.000000e+00 0.000000e+00
3.666670e-01 0.000000e+00 0.000000e+00
3.733330e-01 0.000000e+00 0.000000e+00
3.800000e-01 0.000000e+00 0.000000e+00
3.866670e-01 0.000000e+00 0.000000e+00
3.933330e-01 0.000000e+00 0.000000e+00
4.000000e-01 0.000000e+00 0.000000e+00
4.066670e-01 0.000000e+00 0.000000e+00
4.133330e-01 0.000000e+00 0.000000e+00
4.200000e-01 0.000000e+00 0.000000e+00
4.266670e-01 0.000000e+00 0.000000e+00
4.333330e-01 0.000000e+00 0.000000e+00
4.400000e-01 0.000000e+00 0.000000e+00
4.466670e-01 0.000000e+00 0.000000e+00
4.533330e-01 0.000000e+00 0.000000e+00
4.600000e-01 0.000000e+00 0.000000e+00
4.666670e-01 0.000000e+00 0.000000e+00
4.733330e-01 0.000000e+00 0.000000e+00
4.800000e-01 0.000000e+00 0.000000e+00
4.866670e-01 0.000000e+00 0.000000e+00
4.933330e-01 0.000000e+00 0.000000e+00
5.000000e-01 0.000000e+00 0.000000e+00
5.066670e-01 0.000000e+00 0.000000e+00
5.133330e-01 0.000000e+00 0.000000e+00
5.200000e-01 0.000000e+00 0.000000e+00
5.266670e-01 0.000000e+00 0.000000e+00
5.333330e-01 0.000000e+00 0.000000e+00
5.400000e-01 0.000000e+00 0.000000e+00
5.466670e-01 0.000000e+00 0.000000e+00
5.533330e-01 0.000000e+00 0.000000e+00
5.600000e-01 0.000000e+00 0.000000e+00
5.666670e-01 0.000000e+00 0.000000e+00
5.733330e-01 0.000000e+00 0.000000e+00
5.800000e-01 0.000000e+00 0.000000e+00
5.866670e-01 0.000000e+00 0.000000e+00
5.933330e-01 0.000000e+00 0.000000e+00
6.000000e-01 0.000000e+00 0.000000e+00
6.066670e-01 0.000000e+00 0.000000e+00
6.133330e-01 0.000000e+00 0.000000e+00
6.200000e-01 0.000000e+00 0.000000e+00
6.266670e-01 0.000000e+00 0.000000e+00
6.333330e-01 0.000000e+00 0.000000e+00
6.400000e-01 0.000000e+00 0.000000e+00
6.466670e-01 0.000000e+00 0.000000e+00
6.533330e-01 0.000000e+00 0.000000e+00
6.600000e-01 0.000000e+00 0.000000e+00
6.666670e-01 0.000000e+00 0.000000e+00
6.733330e-01 0.000000e+00 0.000000e+00
6.800000e-01 0.000000e+00 0.000000e+00
6.866670e-01 0.000000e+00 0.000000e+00
6.933330e-01 0.000000e+00 0.000000e+00
7.000000e-01 0.000000e+00 0.000000e+00
7.066670e-01 0.000000e+00 0.000000e+00
7.133330e-01 0.000000e+00 0.000000e+00
7.200000e-01 0.000000e+00 0.000000e+00
7.266670e-01 0.000000e+00 0.000000e+00
7.333330e-01 0.000000e+00 0.000000e+00
7.400000e-01 0.000000e+00 0.000000e+00
7.466670e-01 0.000000e+00 0.000000e+00
7.533330e-01 0.000000e+00 0.000000e+00
7.600000e-01 0.000000e+00 0.000000e+00
7.666670e-01 0.000000e+00 0.000000e+00
7.733330e-01 0.000000e+00 0.000000e+00
7.800000e-01 0.000000e+00 0.000000e+00
7.866670e-01 0.000000e+00 0.000000e+00
7.933330e-01 0.000000e+00 0.000000e+00
8.000000e-01 0.000000e+00 0.000000e+00
8.066670e-01 0.000000e+00 0.000000e+00
8.133330e-01 0.000000e+00 0.000000e+00
8.200000e-01 0.000000e+00 0.000000e+00
8.266670e-01 0.000000e+00 0.000000e+00
8.333330e-01 0.000000e+00 0.000000e+00
8.400000e-01 0.000000e+00 0.000000e+00
8.466670e-01 0.000000e+00 0.000000e+00
8.533330e-01 0.000000e+00 0.000000e+00
8.600000e-01 0.000000e+00 0.000000e+00
8.666670e-01 0.000000e+00 0.000000e+00
8.733330e-01 0.000000e+00 0.000000e+00
8.800000e-01 0.000000e+00 0.000000e+00
8.866670e-01 0.000000e+00 0.000000e+00
8.933330e-01 0.000000e+00 0.000000e+00
9.000000e-01 0.000000e+00 0.000000e+00
9.066670e-01 0.000000e+00 0.000000e+00
9.133330e-01 0.000000e+00 0.000000e+00
9.200000e-01 0.000000e+00 0.000000e+00
9.266670e-01 0.000000e+00 0.000000e+00
9.333330e-01 0.000000e+00 0.000000e+00
9.400000e-01 0.000000e+00 0.000000e+00
9.466670e-01 0.000000e+00 0.000000e+00
9.533330e-01 0.000000e+00 0.000000e+00
9.600000e-01 0.000000e+00 0.000000e+00
9.666670e-01 0.000000e+00 0.000000e+00
9.733330e-01 0.000000e+00 0.000000e+00
9.800000e-01 0.000000e+00 0.000000e+00
9.866670e-01 0.000000e+00 0.000000e+00
9.933330e-01 0.000000e+00 0.000000e+00
1.000000e+00 0.000000e+00 0.000000e+00
1.006667e+00 0.000000e+00 0.000000e+00
1.013333e+00 0.000000e+00 0.000000e+00
1.020000e+00 0.000000e+00 0.000000e+00
1.026667e+00 0.000000e+00 0.000000e+00
1.033333e+00 0.000000e+00 0.000000e+00
1.040000e+00 0.000000e+00 0.000000e+00
1.046667e+00 0.000000e+00 0.000000e+00
1.053333e+00 0.000000e+00 0.000000e+00
1.060000e+00 0.000000e+00 0.000000e+00
1.066667e+00 0.000000e+00 0.000000e+00
1.073333e+00 0.000000e+00 0.000000e+00
1.080000e+00 0.000000e+00 0.000000e+00
1.086667e+00 0.000000e+00 0.000000e+00
1.093333e+00 0.000000e+00 0.000000e+00
1.100000e+00 0.000000e+00 0.000000e+00
1.106667e+00 0.000000e+00 0.000000e+00
1.113333e+00 0.000000e+00 0.000000e+00
1.120000e+00 0.000000e+00 0.000000e+00
1.126667e+00 0.000000e+00 0.000000e+00
1.133333e+00 0.000000e+00 0.000000e+00
1.140000e+00 0.000000e+00 0.000000e+00
1.146667e+00 0.000000e+00 0.000000e+00
1.153333e+00 0.000000e+00 0.000000e+00
1.160000e+00 0.000000e+00 0.000000e+00
1.166667e+00 0.000000e+00 0.000000e+00
1.173333e+00 0.000000e+00 0.000000e+00
1.180000e+00 0.000000e+00 0.000000e+00
1.186667e+00 0.000000e+00 0.000000e+00
1.193333e+00 0.000000e+00 0.000000e+00
1.200000e+00 0.000000e+00 0.000000e+00
1.206667e+00 0.000000e+00 0.000000e+00
1.213333e+00 0.000000e+00 0.000000e+00
1.220000e+00 0.000000e+00 0.000000e+00
1.226667e+00 0.000000e+00 0.000000e+00
1.233333e+00 0.000000e+00 0.000000e+00
1.240000e+00 0.000000e+00 0.000000e+00
1.246667e+00 0.000000e+00 0.000000e+00
1.253333e+00 0.000000e+00 0.000000e+00
1.260000e+00 0.000000e+00 0.000000e+00
1.266667e+00 0.000000e+00 0.000000e+00
1.273333e+00 0.000000e+00 0.000000e+00
1.280000e+00 0.000000e+00 0.000000e+00
1.286667e+00 0.000000e+00 0.000000e+00
1.293333e+00 0.000000e+00 0.000000e+00
1.300000e+00 0.000000e+00 0.000000e+00
1.306667e+00 0.000000e+00 0.000000e+00
1.313333e+00 0.000000e+00 0.000000e+00
1.320000e+00 0.000000e+00 0.000000e+00
1.326667e+00 0.000000e+00 0.000000e+00
1.333333e+00 0.000000e+00 0.000000e+00
1.340000e+00 0.000000e+00 0.000000e+00
1.346667e+00 0.000000e+00 0.000000e+00
1.353333e+00 0.000000e+00 0.000000e+00
1.360000e+00 0.000000e+00 0.000000e+00
1.366667e+00 0.000000e+00 0.000000e+00
1.373333e+00 0.000000e+00 0.000000e+00
1.380000e+00 0.000000e+00 0.000000e+00
1.386667e+00 0.000000e+00 0.000000e+00
1.393333e+00 0.000000e+00 0.000000e+00
1.400000e+00 0.000000e+00 0.000000e+00
1.406667e+00 0.000000e+00 0.000000e+00
1.413333e+00 0.000000e+00 0.000000e+00
1.420000e+00 0.000000e+00 0.000000e+00
1.426667e+00 0.000000e+00 0.000000e+00
1.433333e+00 0.000000e+00 0.000000e+00
1.440000e+00 0.000000e+00 0.000000e+00
1.446667e+00 0.000000e+00 0.000000e+00
1.453333e+00 0.000000e+00 0.000000e+00
1.460000e+00 0.000000e+00 0.000000e+00
1.466667e+00 0.000000e+00 0.000000e+00
1.473333e+00 0.000000e+00 0.000000e+00
1.480000e+00 0.000000e+00 0.000000e+00
1.486667e+00 0.000000e+00 0.000000e+00
1.493333e+00 0.000000e+00 0.000000e+00
1.500000e+00 0.000000e+00 0.000000e+00
1.506667e+00 0.000000e+00 0.000000e+00
1.513333e+00 0.000000e+00 0.000000e+00
1.520000e+00 0.000000e+00 0.000000e+00
1.526667e+00 0.000000e+00 0.000000e+00
1.533333e+00 0.000000e+00 0.000000e+00
1.540000e+00 0.000000e+00 0.000000e+00
1.546667e+00 0.000000e+00 0.000000e+00
1.553333e+00 0.000000e+00 0.000000e+00
1.560000e+00 0.000000e+00 0.000000e+00
1.566667e+00 0.000000e+00 0.000000e+00
1.573333e+00 0.000000e+00 0.000000e+00
1.580000e+00 0.000000e+00 0.000000e+00
1.586667e+00 0.000000e+00 0.000000e+00
1.593333e+00 0.000000e+00 0.000000e+00
1.600000e+00 0.000000e+00 0.000000e+00
1.606667e+00 0.000000e+00 0.000000e+00
1.613333e+00 0.000000e+00 0.000000e+00
1.620000e+00 0.000000e+00 0.000000e+00
1.626667e+00 0.000000e+00 0.000000e+00
1.633333e+00 0.000000e+00 0.000000e+00
1.640000e+00 0.000000e+00 0.000000e+00
1.646667e+00 0.000000e+00 0.000000e+00
1.653333e+00 0.000000e+00 0.000000e+00
1.660000e+00 0.000000e+00 0.000000e+00
1.666667e+00 0.000000e+00 0.000000e+00
1.673333e+00 0.000000e+00 0.000000e+00
1.680000e+00 0.000000e+00 0.000000e+00
1.686667e+00 0.000000e+00 0.000000e+00
[...]
POINT_DATA 601
SCALARS vm float 1
LOOKUP_TABLE default
-1.024185e+01
-1.024179e+01
-1.024163e+01
-1.024136e+01
-1.024099e+01
-1.024051e+01
-1.023948e+01
-1.023887e+01
-1.023820e+01
-1.023746e+01
-1.023665e+01
-1.023578e+01
-1.023484e+01
-1.023384e+01
-1.023278e+01
-1.023166e+01
-1.023047e+01
-1.022923e+01
-1.022794e+01
-1.022658e+01
-1.022517e+01
-1.022371e+01
-1.022219e+01
-1.022062e+01
-1.021900e+01
-1.021733e+01
-1.021560e+01
-1.021383e+01
-1.021201e+01
-1.021014e+01
-1.020823e+01
-1.020626e+01
-1.020426e+01
-1.020220e+01
-1.020011e+01
-1.019797e+01
-1.019578e+01
-1.019356e+01
-1.019129e+01
-1.018898e+01
-1.018663e+01
-1.018424e+01
-1.018182e+01
-1.017935e+01
-1.017684e+01
-1.017430e+01
-1.017172e+01
-1.016910e+01
-1.016645e+01
-1.016376e+01
-1.016104e+01
-1.015828e+01
-1.015548e+01
-1.015265e+01
-1.014979e+01
-1.014689e+01
-1.014396e+01
-1.014100e+01
-1.013801e+01
-1.013498e+01
-1.013192e+01
-1.012883e+01
-1.012571e+01
-1.012255e+01
-1.011937e+01
-1.011615e+01
-1.011291e+01
-1.010963e+01
-1.010632e+01
-1.010299e+01
-1.009962e+01
-1.009623e+01
-1.009280e+01
-1.008935e+01
-1.008586e+01
-1.008235e+01
-1.007881e+01
-1.007524e+01
-1.007164e+01
-1.006801e+01
-1.006435e+01
-1.006066e+01
-1.005695e+01
-1.005320e+01
-1.004943e+01
-1.004563e+01
-1.004180e+01
-1.003794e+01
-1.003405e+01
-1.003013e+01
-1.002618e+01
-1.002221e+01
-1.001820e+01
-1.001416e+01
-1.001010e+01
-1.000601e+01
-1.000188e+01
-9.997727e+00
-9.993543e+00
-9.989328e+00
-9.985082e+00
-9.980806e+00
-9.976499e+00
-9.972161e+00
-9.967792e+00
-9.963391e+00
-9.958957e+00
-9.954492e+00
-9.949994e+00
-9.945464e+00
-9.940900e+00
-9.936303e+00
-9.931673e+00
-9.927008e+00
-9.922310e+00
-9.917576e+00
-9.912808e+00
-9.908004e+00
-9.903164e+00
-9.898288e+00
-9.893376e+00
-9.888427e+00
-9.883441e+00
-9.878416e+00
-9.873354e+00
-9.868253e+00
-9.863113e+00
-9.857934e+00
-9.852715e+00
-9.847455e+00
-9.842155e+00
-9.836813e+00
-9.831430e+00
-9.826004e+00
-9.820536e+00
-9.815024e+00
-9.809468e+00
-9.803868e+00
-9.798223e+00
-9.792533e+00
-9.786796e+00
-9.781011e+00
-9.775179e+00
-9.769297e+00
-9.763364e+00
-9.757380e+00
-9.751343e+00
-9.745249e+00
-9.739090e+00
-9.732815e+00
-9.726123e+00
-9.723162e+00
-9.720883e+00
-9.718700e+00
-9.716512e+00
-9.714303e+00
-9.712070e+00
-9.709815e+00
-9.707537e+00
-9.705237e+00
-9.702916e+00
-9.700574e+00
-9.698212e+00
-9.695831e+00
-9.693430e+00
-9.691012e+00
-9.688575e+00
-9.686121e+00
-9.683650e+00
-9.681162e+00
-9.678659e+00
-9.676141e+00
-9.673608e+00
-9.671060e+00
-9.668499e+00
-9.665924e+00
-9.663336e+00
-9.660736e+00
-9.658125e+00
-9.655501e+00
-9.652867e+00
-9.650223e+00
-9.647569e+00
-9.644905e+00
-9.642232e+00
-9.639551e+00
-9.636862e+00
-9.634165e+00
-9.631461e+00
-9.628751e+00
-9.626034e+00
-9.623312e+00
-9.620584e+00
-9.617852e+00
-9.615115e+00
-9.612375e+00
-9.609631e+00
-9.606884e+00
-9.604135e+00
-9.601383e+00
-9.598631e+00
-9.595877e+00
-9.593122e+00
-9.590367e+00
-9.587613e+00
-9.584859e+00
-9.582107e+00
-9.579356e+00
-9.576607e+00
-9.573861e+00
-9.571117e+00
-9.568378e+00
-9.565642e+00
-9.562911e+00
-9.560185e+00
-9.557464e+00
-9.554749e+00
-9.552040e+00
-9.549338e+00
-9.546644e+00
-9.543957e+00
-9.541279e+00
-9.538609e+00
-9.535949e+00
-9.533298e+00
-9.530658e+00
-9.528029e+00
-9.525411e+00
-9.522805e+00
-9.520211e+00
-9.517630e+00
-9.515063e+00
-9.512510e+00
-9.509971e+00
-9.507448e+00
-9.504940e+00
-9.502448e+00
-9.499973e+00
-9.497516e+00
-9.495076e+00
-9.492655e+00
-9.490253e+00
-9.487871e+00
-9.485509e+00
-9.483168e+00
-9.480849e+00
-9.478552e+00
-9.476278e+00
-9.474028e+00
-9.471801e+00
-9.469600e+00
-9.467424e+00
-9.465274e+00
-9.463151e+00
-9.461055e+00
-9.458988e+00
-9.456950e+00
-9.454942e+00
-9.452964e+00
-9.451017e+00
-9.449102e+00
-9.447220e+00
-9.445371e+00
-9.443557e+00
-9.441777e+00
-9.440034e+00
-9.438327e+00
-9.436657e+00
-9.435025e+00
-9.433433e+00
-9.431880e+00
-9.430368e+00
-9.428898e+00
-9.427470e+00
-9.426085e+00
-9.424744e+00
-9.423448e+00
-9.422197e+00
-9.420993e+00
-9.419837e+00
-9.418728e+00
-9.417668e+00
-9.416658e+00
-9.415698e+00
-9.414789e+00
-9.413932e+00
-9.413127e+00
-9.412375e+00
-9.411676e+00
-9.411031e+00
-9.410441e+00
-9.409906e+00
-9.409426e+00
-9.409002e+00
-9.408633e+00
-9.408321e+00
-9.408065e+00
-9.407866e+00
-9.407724e+00
-9.407638e+00
-9.407610e+00
-9.723162e+00
-9.720883e+00
-9.718700e+00
-9.716512e+00
-9.714303e+00
-9.712070e+00
-9.709815e+00
-9.707537e+00
-9.705237e+00
-9.702916e+00
-9.700574e+00
-9.698212e+00
-9.695831e+00
-9.693430e+00
-9.691012e+00
-9.688575e+00
-9.686121e+00
-9.683650e+00
-9.681162e+00
-9.678659e+00
-9.676141e+00
-9.673608e+00
-9.671060e+00
-9.668499e+00
-9.665924e+00
-9.663336e+00
-9.660736e+00
-9.658125e+00
-9.655501e+00
-9.652867e+00
-9.650223e+00
-9.647569e+00
-9.644905e+00
-9.642232e+00
-9.639551e+00
-9.636862e+00
-9.634165e+00
-9.631461e+00
-9.628751e+00
-9.626034e+00
-9.623312e+00
-9.620584e+00
-9.617852e+00
-9.615115e+00
-9.612375e+00
-9.609631e+00
-9.606884e+00
-9.604135e+00
-9.601383e+00
-9.598631e+00
-9.595877e+00
-9.593122e+00
-9.590367e+00
-9.587613e+00
-9.584859e+00
-9.582107e+00
-9.579356e+00
-9.576607e+00
-9.573861e+00
-9.571117e+00
-9.568378e+00
-9.565642e+00
-9.562911e+00
-9.560185e+00
-9.557464e+00
-9.554749e+00
-9.552040e+00
-9.549338e+00
-9.546644e+00
-9.543957e+00
-9.541279e+00
-9.538609e+00
-9.535949e+00
-9.533298e+00
-9.530658e+00
-9.528029e+00
-9.525411e+00
-9.522805e+00
-9.520211e+00
-9.517630e+00
-9.515063e+00
-9.512510e+00
-9.509971e+00
-9.507448e+00
-9.504940e+00
-9.502448e+00
-9.499973e+00
-9.497516e+00
-9.495076e+00
-9.492655e+00
-9.490253e+00
-9.487871e+00
-9.485509e+00
-9.483168e+00
-9.480849e+00
-9.478552e+00
-9.476278e+00
-9.474028e+00
-9.471801e+00
-9.469600e+00
-9.467424e+00
-9.465274e+00
-9.463151e+00
-9.461055e+00
-9.458988e+00
-9.456950e+00
-9.454942e+00
-9.452964e+00
-9.451017e+00
-9.449102e+00
-9.447220e+00
-9.445371e+00
-9.443557e+00
-9.441777e+00
-9.440034e+00
-9.438327e+00
-9.436657e+00
-9.435025e+00
-9.433433e+00
-9.431880e+00
-9.430368e+00
-9.428898e+00
-9.427470e+00
-9.426085e+00
-9.424744e+00
-9.423448e+00
-9.422197e+00
-9.420993e+00
-9.419837e+00
-9.418728e+00
-9.417668e+00
-9.416658e+00
-9.415698e+00
-9.414789e+00
-9.413932e+00
-9.413127e+00
-9.412375e+00
-9.411676e+00
-9.411031e+00
-9.410441e+00
-9.409906e+00
-9.409426e+00
-9.409002e+00
-9.408633e+00
-9.408321e+00
-9.408065e+00
-9.407866e+00
-9.407724e+00
-9.407638e+00
-9.407610e+00
-9.723162e+00
-9.720883e+00
-9.718700e+00
-9.716512e+00
-9.714303e+00
-9.712070e+00
-9.709815e+00
-9.707537e+00
-9.705237e+00
-9.702916e+00
-9.700574e+00
-9.698212e+00
-9.695831e+00
-9.693430e+00
-9.691012e+00
-9.688575e+00
-9.686121e+00
-9.683650e+00
-9.681162e+00
-9.678659e+00
-9.676141e+00
-9.673608e+00
-9.671060e+00
-9.668499e+00
-9.665924e+00
-9.663336e+00
-9.660736e+00
-9.658125e+00
-9.655501e+00
-9.652867e+00
-9.650223e+00
-9.647569e+00
-9.644905e+00
-9.642232e+00
-9.639551e+00
-9.636862e+00
-9.634165e+00
-9.631461e+00
-9.628751e+00
-9.626034e+00
-9.623312e+00
-9.620584e+00
-9.617852e+00
-9.615115e+00
-9.612375e+00
-9.609631e+00
-9.606884e+00
-9.604135e+00
-9.601383e+00
-9.598631e+00
-9.595877e+00
-9.593122e+00
-9.590367e+00
-9.587613e+00
-9.584859e+00
-9.582107e+00
-9.579356e+00
-9.576607e+00
-9.573861e+00
-9.571117e+00
-9.568378e+00
-9.565642e+00
-9.562911e+00
-9.560185e+00
-9.557464e+00
-9.554749e+00
-9.552040e+00
-9.549338e+00
-9.546644e+00
-9.543957e+00
-9.541279e+00
-9.538609e+00
-9.535949e+00
-9.533298e+00
-9.530658e+00
-9.528029e+00
-9.525411e+00
-9.522805e+00
-9.520211e+00
-9.517630e+00
-9.515063e+00
-9.512510e+00
-9.509971e+00
-9.507448e+00
-9.504940e+00
-9.502448e+00
-9.499973e+00
-9.497516e+00
-9.495076e+00
-9.492655e+00
-9.490253e+00
-9.487871e+00
-9.485509e+00
-9.483168e+00
-9.480849e+00
-9.478552e+00
-9.476278e+00
-9.474028e+00
-9.471801e+00
-9.469600e+00
-9.467424e+00
-9.465274e+00
-9.463151e+00
-9.461055e+00
-9.458988e+00
-9.456950e+00
-9.454942e+00
-9.452964e+00
-9.451017e+00
-9.449102e+00
-9.447220e+00
-9.445371e+00
-9.443557e+00
-9.441777e+00
-9.440034e+00
-9.438327e+00
-9.436657e+00
-9.435025e+00
-9.433433e+00
-9.431880e+00
-9.430368e+00
-9.428898e+00
-9.427470e+00
-9.426085e+00
-9.424744e+00
-9.423448e+00
-9.422197e+00
-9.420993e+00
-9.419837e+00
-9.418728e+00
-9.417668e+00
-9.416658e+00
-9.415698e+00
-9.414789e+00
-9.413932e+00
-9.413127e+00
-9.412375e+00
-9.411676e+00
-9.411031e+00
-9.410441e+00
-9.409906e+00
-9.409426e+00
-9.409002e+00
-9.408633e+00
-9.408321e+00
-9.408065e+00
-9.407866e+00
-9.407724e+00
-9.407638e+00
-9.407610e+00
