# vtk DataFile Version 3.0
Monodomain FEM
ASCII
DATASET POLYDATA
POINTS 301 float
0.000000e+00 0.000000e+00 0.000000e+00
6.667000e-03 0.000000e+00 0.000000e+00
1.333300e-02 0.000000e+00 0.000000e+00
2.000000e-02 0.000000e+00 0.000000e+00
2.666700e-02 0.000000e+00 0.000000e+00
3.333300e-02 0.000000e+00 0.000000e+00
4.000000e-02 0.000000e+00 0.000000e+00
4.666700e-02 0.000000e+00 0.000000e+00
5.333300e-02 0.000000e+00 0.000000e+00
6.000000e-02 0.000000e+00 0.000000e+00
6.666700e-02 0.000000e+00 0.000000e+00
7.333300e-02 0.000000e+00 0.000000e+00
8.000000e-02 0.000000e+00 0.000000e+00
8.666700e-02 0.000000e+00 0.000000e+00
9.333300e-02 0.000000e+00 0.000000e+00
1.000000e-01 0.000000e+00 0.000000e+00
1.066670e-01 0.000000e+00 0.000000e+00
1.133330e-01 0.000000e+00 0.000000e+00
1.200000e-01 0.000000e+00 0.000000e+00
1.266670e-01 0.000000e+00 0.000000e+00
1.333330e-01 0.000000e+00 0.000000e+00
1.400000e-01 0.000000e+00 0.000000e+00
1.466670e-01 0.000000e+00 0.000000e+00
1.533330e-01 0.000000e+00 0.000000e+00
1.600000e-01 0.000000e+00 0.000000e+00
1.666670e-01 0.000000e+00 0.000000e+00
1.733330e-01 0.000000e+00 0.000000e+00
1.800000e-01 0.000000e+00 0.000000e+00
1.866670e-01 0.000000e+00 0.000000e+00
1.933330e-01 0.000000e+00 0.000000e+00
2.000000e-01 0.000000e+00 0.000000e+00
2.066670e-01 0.000000e+00 0.000000e+00
2.133330e-01 0.000000e+00 0.000000e+00
2.200000e-01 0.000000e+00 0.000000e+00
2.266670e-01 0.000000e+00 0.000000e+00
2.333330e-01 0.000000e+00 0.000000e+00
2.400000e-01 0.000000e+00 0.000000e+00
2.466670e-01 0.000000e+00 0.000000e+00
2.533330e-01 0.000000e+00 0.000000e+00
2.600000e-01 0.000000e+00 0.000000e+00
2.666670e-01 0.000000e+00 0.000000e+00
2.733330e-01 0.000000e+00 0.000000e+00
2.800000e-01 0.000000e+00 0.000000e+00
2.866670e-01 0.000000e+00 0.000000e+00
2.933330e-01 0.000000e+00 0.000000e+00
3.000000e-01 0.000000e+00 0.000000e+00
3.066670e-01 0.000000e+00 0.000000e+00
3.133330e-01 0.000000e+00 0.000000e+00
3.200000e-01 0.000000e+00 0.000000e+00
3.266670e-01 0.000000e+00 0.000000e+00
3.333330e-01 0.000000e+00 0.000000e+00
3.400000e-01 0.000000e+00 0.000000e+00
3.466670e-01 0.000000e+00 0.000000e+00
3.533330e-01 0.000000e+00 0.000000e+00
3.600000e-01 0.000000e+00 0.000000e+00
3.666670e-01 0.000000e+00 0.000000e+00
3.733330e-01 0.000000e+00 0.000000e+00
3.800000e-01 0.000000e+00 0.000000e+00
3.866670e-01 0.000000e+00 0.000000e+00
3.933330e-01 0.000000e+00 0.000000e+00
4.000000e-01 0.000000e+00 0.000000e+00
4.066670e-01 0.000000e+00 0.000000e+00
4.133330e-01 0.000000e+00 0.000000e+00
4.200000e-01 0.000000e+00 0.000000e+00
4.266670e-01 0.000000e+00 0.000000e+00
4.333330e-01 0.000000e+00 0.000000e+00
4.400000e-01 0.000000e+00 0.000000e+00
4.466670e-01 0.000000e+00 0.000000e+00
4.533330e-01 0.000000e+00 0.000000e+00
4.600000e-01 0.000000e+00 0.000000e+00
4.666670e-01 0.000000e+00 0.000000e+00
4.733330e-01 0.000000e+00 0.000000e+00
4.800000e-01 0.000000e+00 0.000000e+00
4.866670e-01 0.000000e+00 0.000000e+00
4.933330e-01 0.000000e+00 0.000000e+00
5.000000e-01 0.000000e+00 0.000000e+00
5.066670e-01 0.000000e+00 0.000000e+00
5.133330e-01 0.000000e+00 0.000000e+00
5.200000e-01 0.000000e+00 0.000000e+00
5.266670e-01 0.000000e+00 0.000000e+00
5.333330e-01 0.000000e+00 0.000000e+00
5.400000e-01 0.000000e+00 0.000000e+00
5.466670e-01 0.000000e+00 0.000000e+00
5.533330e-01 0.000000e+00 0.000000e+00
5.600000e-01 0.000000e+00 0.000000e+00
5.666670e-01 0.000000e+00 0.000000e+00
5.733330e-01 0.000000e+00 0.000000e+00
5.800000e-01 0.000000e+00 0.000000e+00
5.866670e-01 0.000000e+00 0.000000e+00
5.933330e-01 0.000000e+00 0.000000e+00
6.000000e-01 0.000000e+00 0.000000e+00
6.066670e-01 0.000000e+00 0.000000e+00
6.133330e-01 0.000000e+00 0.000000e+00
6.200000e-01 0.000000e+00 0.000000e+00
6.266670e-01 0.000000e+00 0.000000e+00
6.333330e-01 0.000000e+00 0.000000e+00
6.400000e-01 0.000000e+00 0.000000e+00
6.466670e-01 0.000000e+00 0.000000e+00
6.533330e-01 0.000000e+00 0.000000e+00
6.600000e-01 0.000000e+00 0.000000e+00
6.666670e-01 0.000000e+00 0.000000e+00
6.733330e-01 0.000000e+00 0.000000e+00
6.800000e-01 0.000000e+00 0.000000e+00
6.866670e-01 0.000000e+00 0.000000e+00
6.933330e-01 0.000000e+00 0.000000e+00
7.000000e-01 0.000000e+00 0.000000e+00
7.066670e-01 0.000000e+00 0.000000e+00
7.133330e-01 0.000000e+00 0.000000e+00
7.200000e-01 0.000000e+00 0.000000e+00
7.266670e-01 0.000000e+00 0.000000e+00
7.333330e-01 0.000000e+00 0.000000e+00
7.400000e-01 0.000000e+00 0.000000e+00
7.466670e-01 0.000000e+00 0.000000e+00
7.533330e-01 0.000000e+00 0.000000e+00
7.600000e-01 0.000000e+00 0.000000e+00
7.666670e-01 0.000000e+00 0.000000e+00
7.733330e-01 0.000000e+00 0.000000e+00
7.800000e-01 0.000000e+00 0.000000e+00
7.866670e-01 0.000000e+00 0.000000e+00
7.933330e-01 0.000000e+00 0.000000e+00
8.000000e-01 0.000000e+00 0.000000e+00
8.066670e-01 0.000000e+00 0.000000e+00
8.133330e-01 0.000000e+00 0.000000e+00
8.200000e-01 0.000000e+00 0.000000e+00
8.266670e-01 0.000000e+00 0.000000e+00
8.333330e-01 0.000000e+00 0.000000e+00
8.400000e-01 0.000000e+00 0.000000e+00
8.466670e-01 0.000000e+00 0.000000e+00
8.533330e-01 0.000000e+00 0.000000e+00
8.600000e-01 0.000000e+00 0.000000e+00
8.666670e-01 0.000000e+00 0.000000e+00
8.733330e-01 0.000000e+00 0.000000e+00
8.800000e-01 0.000000e+00 0.000000e+00
8.866670e-01 0.000000e+00 0.000000e+00
8.933330e-01 0.000000e+00 0.000000e+00
9.000000e-01 0.000000e+00 0.000000e+00
9.066670e-01 0.000000e+00 0.000000e+00
9.133330e-01 0.000000e+00 0.000000e+00
9.200000e-01 0.000000e+00 0.000000e+00
9.266670e-01 0.000000e+00 0.000000e+00
9.333330e-01 0.000000e+00 0.000000e+00
9.400000e-01 0.000000e+00 0.000000e+00
9.466670e-01 0.000000e+00 0.000000e+00
9.533330e-01 0.000000e+00 0.000000e+00
9.600000e-01 0.000000e+00 0.000000e+00
9.666670e-01 0.000000e+00 0.000000e+00
9.733330e-01 0.000000e+00 0.000000e+00
9.800000e-01 0.000000e+00 0.000000e+00
9.866670e-01 0.000000e+00 0.000000e+00
9.933330e-01 0.000000e+00 0.000000e+00
1.000000e+00 0.000000e+00 0.000000e+00
1.006667e+00 0.000000e+00 0.000000e+00
1.013333e+00 0.000000e+00 0.000000e+00
1.020000e+00 0.000000e+00 0.000000e+00
1.026667e+00 0.000000e+00 0.000000e+00
1.033333e+00 0.000000e+00 0.000000e+00
1.040000e+00 0.000000e+00 0.000000e+00
1.046667e+00 0.000000e+00 0.000000e+00
1.053333e+00 0.000000e+00 0.000000e+00
1.060000e+00 0.000000e+00 0.000000e+00
1.066667e+00 0.000000e+00 0.000000e+00
1.073333e+00 0.000000e+00 0.000000e+00
1.080000e+00 0.000000e+00 0.000000e+00
1.086667e+00 0.000000e+00 0.000000e+00
1.093333e+00 0.000000e+00 0.000000e+00
1.100000e+00 0.000000e+00 0.000000e+00
1.106667e+00 0.000000e+00 0.000000e+00
1.113333e+00 0.000000e+00 0.000000e+00
1.120000e+00 0.000000e+00 0.000000e+00
1.126667e+00 0.000000e+00 0.000000e+00
1.133333e+00 0.000000e+00 0.000000e+00
1.140000e+00 0.000000e+00 0.000000e+00
1.146667e+00 0.000000e+00 0.000000e+00
1.153333e+00 0.000000e+00 0.000000e+00
1.160000e+00 0.000000e+00 0.000000e+00
1.166667e+00 0.000000e+00 0.000000e+00
1.173333e+00 0.000000e+00 0.000000e+00
1.180000e+00 0.000000e+00 0.000000e+00
1.186667e+00 0.000000e+00 0.000000e+00
1.193333e+00 0.000000e+00 0.000000e+00
1.200000e+00 0.000000e+00 0.000000e+00
1.206667e+00 0.000000e+00 0.000000e+00
1.213333e+00 0.000000e+00 0.000000e+00
1.220000e+00 0.000000e+00 0.000000e+00
1.226667e+00 0.000000e+00 0.000000e+00
1.233333e+00 0.000000e+00 0.000000e+00
1.240000e+00 0.000000e+00 0.000000e+00
1.246667e+00 0.000000e+00 0.000000e+00
1.253333e+00 0.000000e+00 0.000000e+00
1.260000e+00 0.000000e+00 0.000000e+00
1.266667e+00 0.000000e+00 0.000000e+00
1.273333e+00 0.000000e+00 0.000000e+00
1.280000e+00 0.000000e+00 0.000000e+00
1.286667e+00 0.000000e+00 0.000000e+00
1.293333e+00 0.000000e+00 0.000000e+00
1.300000e+00 0.000000e+00 0.000000e+00
1.306667e+00 0.000000e+00 0.000000e+00
1.313333e+00 0.000000e+00 0.000000e+00
1.320000e+00 0.000000e+00 0.000000e+00
1.326667e+00 0.000000e+00 0.000000e+00
1.333333e+00 0.000000e+00 0.000000e+00
1.340000e+00 0.000000e+00 0.000000e+00
1.346667e+00 0.000000e+00 0.000000e+00
1.353333e+00 0.000000e+00 0.000000e+00
1.360000e+00 0.000000e+00 0.000000e+00
1.366667e+00 0.000000e+00 0.000000e+00
1.373333e+00 0.000000e+00 0.000000e+00
1.380000e+00 0.000000e+00 0.000000e+00
1.386667e+00 0.000000e+00 0.000000e+00
1.393333e+00 0.000000e+00 0.000000e+00
1.400000e+00 0.000000e+00 0.000000e+00
1.406667e+00 0.000000e+00 0.000000e+00
1.413333e+00 0.000000e+00 0.000000e+00
1.420000e+00 0.000000e+00 0.000000e+00
1.426667e+00 0.000000e+00 0.000000e+00
1.433333e+00 0.000000e+00 0.000000e+00
1.440000e+00 0.000000e+00 0.000000e+00
1.446667e+00 0.000000e+00 0.000000e+00
1.453333e+00 0.000000e+00 0.000000e+00
1.460000e+00 0.000000e+00 0.000000e+00
1.466667e+00 0.000000e+00 0.000000e+00
1.473333e+00 0.000000e+00 0.000000e+00
1.480000e+00 0.000000e+00 0.000000e+00
1.486667e+00 0.000000e+00 0.000000e+00
1.493333e+00 0.000000e+00 0.000000e+00
1.500000e+00 0.000000e+00 0.000000e+00
1.506667e+00 0.000000e+00 0.000000e+00
1.513333e+00 0.000000e+00 0.000000e+00
1.520000e+00 0.000000e+00 0.000000e+00
1.526667e+00 0.000000e+00 0.000000e+00
1.533333e+00 0.000000e+00 0.000000e+00
1.540000e+00 0.000000e+00 0.000000e+00
1.546667e+00 0.000000e+00 0.000000e+00
1.553333e+00 0.000000e+00 0.000000e+00
1.560000e+00 0.000000e+00 0.000000e+00
1.566667e+00 0.000000e+00 0.000000e+00
1.573333e+00 0.000000e+00 0.000000e+00
1.580000e+00 0.000000e+00 0.000000e+00
1.586667e+00 0.000000e+00 0.000000e+00
1.593333e+00 0.000000e+00 0.000000e+00
1.600000e+00 0.000000e+00 0.000000e+00
1.606667e+00 0.000000e+00 0.000000e+00
1.613333e+00 0.000000e+00 0.000000e+00
1.620000e+00 0.000000e+00 0.000000e+00
1.626667e+00 0.000000e+00 0.000000e+00
1.633333e+00 0.000000e+00 0.000000e+00
1.640000e+00 0.000000e+00 0.000000e+00
1.646667e+00 0.000000e+00 0.000000e+00
1.653333e+00 0.000000e+00 0.000000e+00
1.660000e+00 0.000000e+00 0.000000e+00
1.666667e+00 0.000000e+00 0.000000e+00
1.673333e+00 0.000000e+00 0.000000e+00
1.680000e+00 0.000000e+00 0.000000e+00
1.686667e+00 0.000000e+00 0.000000e+00
1.693333e+00 0.000000e+00 0.000000e+00
1.700000e+00 0.000000e+00 0.000000e+00
1.706667e+00 0.000000e+00 0.000000e+00
1.713333e+00 0.000000e+00 0.000000e+00
1.720000e+00 0.000000e+00 0.000000e+00
1.726667e+00 0.000000e+00 0.000000e+00
1.733333e+00 0.000000e+00 0.000000e+00
1.740000e+00 0.000000e+00 0.000000e+00
1.746667e+00 0.000000e+00 0.000000e+00
1.753333e+00 0.000000e+00 0.000000e+00
1.760000e+00 0.000000e+00 0.000000e+00
1.766667e+00 0.000000e+00 0.000000e+00
1.773333e+00 0.000000e+00 0.000000e+00
1.780000e+00 0.000000e+00 0.000000e+00
1.786667e+00 0.000000e+00 0.000000e+00
1.793333e+00 0.000000e+00 0.000000e+00
1.800000e+00 0.000000e+00 0.000000e+00
1.806667e+00 0.000000e+00 0.000000e+00
1.813333e+00 0.000000e+00 0.000000e+00
1.820000e+00 0.000000e+00 0.000000e+00
1.826667e+00 0.000000e+00 0.000000e+00
1.833333e+00 0.000000e+00 0.000000e+00
1.840000e+00 0.000000e+00 0.000000e+00
1.846667e+00 0.000000e+00 0.000000e+00
1.853333e+00 0.000000e+00 0.000000e+00
1.860000e+00 0.000000e+00 0.000000e+00
1.866667e+00 0.000000e+00 0.000000e+00
1.873333e+00 0.000000e+00 0.000000e+00
1.880000e+00 0.000000e+00 0.000000e+00
1.886667e+00 0.000000e+00 0.000000e+00
1.893333e+00 0.000000e+00 0.000000e+00
1.900000e+00 0.000000e+00 0.000000e+00
1.906667e+00 0.000000e+00 0.000000e+00
1.913333e+00 0.000000e+00 0.000000e+00
1.920000e+00 0.000000e+00 0.000000e+00
1.926667e+00 0.000000e+00 0.000000e+00
1.933333e+00 0.000000e+00 0.000000e+00
1.940000e+00 0.000000e+00 0.000000e+00
1.946667e+00 0.000000e+00 0.000000e+00
1.953333e+00 0.000000e+00 0.000000e+00
1.960000e+00 0.000000e+00 0.000000e+00
1.966667e+00 0.000000e+00 0.000000e+00
1.973333e+00 0.000000e+00 0.000000e+00
1.980000e+00 0.000000e+00 0.000000e+00
1.986667e+00 0.000000e+00 0.000000e+00
1.993333e+00 0.000000e+00 0.000000e+00
2.000000e+00 0.000000e+00 0.000000e+00
LINES 301 900
2 0 1
2 1 2
2 2 3
2 3 4
2 4 5
2 5 6
2 6 7
2 7 8
2 8 9
2 9 10
2 10 11
2 11 12
2 12 13
2 13 14
2 14 15
2 15 16
2 16 17
2 17 18
2 18 19
2 19 20
2 20 21
2 21 22
2 22 23
2 23 24
2 24 25
2 25 26
2 26 27
2 27 28
2 28 29
2 29 30
2 30 31
2 31 32
2 32 33
2 33 34
2 34 35
2 35 36
2 36 37
2 37 38
2 38 39
2 39 40
2 40 41
2 41 42
2 42 43
2 43 44
2 44 45
2 45 46
2 46 47
2 47 48
2 48 49
2 49 50
2 50 51
2 51 52
2 52 53
2 53 54
2 54 55
2 55 56
2 56 57
2 57 58
2 58 59
2 59 60
2 60 61
2 61 62
2 62 63
2 63 64
2 64 65
2 65 66
2 66 67
2 67 68
2 68 69
2 69 70
2 70 71
2 71 72
2 72 73
2 73 74
2 74 75
2 75 76
2 76 77
2 77 78
2 78 79
2 79 80
2 80 81
2 81 82
2 82 83
2 83 84
2 84 85
2 85 86
2 86 87
2 87 88
2 88 89
2 89 90
2 90 91
2 91 92
2 92 93
2 93 94
2 94 95
2 95 96
2 96 97
2 97 98
2 98 99
2 99 100
2 100 101
2 101 102
2 102 103
2 103 104
2 104 105
2 105 106
2 106 107
2 107 108
2 108 109
2 109 110
2 110 111
2 111 112
2 112 113
2 113 114
2 114 115
2 115 116
2 116 117
2 117 118
2 118 119
2 119 120
2 120 121
2 121 122
2 122 123
2 123 124
2 124 125
2 125 126
2 126 127
2 127 128
2 128 129
2 129 130
2 130 131
2 131 132
2 132 133
2 133 134
2 134 135
2 135 136
2 136 137
2 137 138
2 138 139
2 139 140
2 140 141
2 141 142
2 142 143
2 143 144
2 144 145
2 145 146
2 146 147
2 147 148
2 148 149
2 149 150
2 150 151
2 151 152
2 152 153
2 153 154
2 154 155
2 155 156
2 156 157
2 157 158
2 158 159
2 159 160
2 160 161
2 161 162
2 162 163
2 163 164
2 164 165
2 165 166
2 166 167
2 167 168
2 168 169
2 169 170
2 170 171
2 171 172
2 172 173
2 173 174
2 174 175
2 175 176
2 176 177
2 177 178
2 178 179
2 179 180
2 180 181
2 181 182
2 182 183
2 183 184
2 184 185
2 185 186
2 186 187
2 187 188
2 188 189
2 189 190
2 190 191
2 191 192
2 192 193
2 193 194
2 194 195
2 195 196
2 196 197
2 197 198
2 198 199
2 199 200
2 200 201
2 201 202
2 202 203
2 203 204
2 204 205
2 205 206
2 206 207
2 207 208
2 208 209
2 209 210
2 210 211
2 211 212
2 212 213
2 213 214
2 214 215
2 215 216
2 216 217
2 217 218
2 218 219
2 219 220
2 220 221
2 221 222
2 222 223
2 223 224
2 224 225
2 225 226
2 226 227
2 227 228
2 228 229
2 229 230
2 230 231
2 231 232
2 232 233
2 233 234
2 234 235
2 235 236
2 236 237
2 237 238
2 238 239
2 239 240
2 240 241
2 241 242
2 242 243
2 243 244
2 244 245
2 245 246
2 246 247
2 247 248
2 248 249
2 249 250
2 250 251
2 251 252
2 252 253
2 253 254
2 254 255
2 255 256
2 256 257
2 257 258
2 258 259
2 259 260
2 260 261
2 261 262
2 262 263
2 263 264
2 264 265
2 265 266
2 266 267
2 267 268
2 268 269
2 269 270
2 270 271
2 271 272
2 272 273
2 273 274
2 274 275
2 275 276
2 276 277
2 277 278
2 278 279
2 279 280
2 280 281
2 281 282
2 282 283
2 283 284
2 284 285
2 285 286
2 286 287
2 287 288
2 288 289
2 289 290
2 290 291
2 291 292
2 292 293
2 293 294
2 294 295
2 295 296
2 296 297
2 297 298
2 298 299
2 299 300
POINT_DATA 301
SCALARS vm float 1
LOOKUP_TABLE default
4.380718e-11
2.072248e-06
4.136010e-06
6.182835e-06
8.204298e-06
1.019203e-05
1.205375e-05
1.379332e-05
1.550309e-05
1.718362e-05
1.883524e-05
2.045830e-05
2.205315e-05
2.362015e-05
2.515969e-05
2.667217e-05
2.815800e-05
2.961758e-05
3.105133e-05
3.245966e-05
3.384297e-05
3.520167e-05
3.653616e-05
3.784683e-05
3.913407e-05
4.039827e-05
4.163979e-05
4.285901e-05
4.405628e-05
4.523196e-05
4.638640e-05
4.751994e-05
4.863291e-05
4.972564e-05
5.079846e-05
5.185167e-05
5.288561e-05
5.390056e-05
5.489684e-05
5.587474e-05
5.683456e-05
5.777657e-05
5.870108e-05
5.960835e-05
6.049867e-05
6.137230e-05
6.222952e-05
6.307058e-05
6.389576e-05
6.470530e-05
6.549945e-05
6.627848e-05
6.704261e-05
6.779210e-05
6.852719e-05
6.924809e-05
6.995506e-05
7.064831e-05
7.132807e-05
7.199455e-05
7.264799e-05
7.328858e-05
7.391654e-05
7.453207e-05
7.513538e-05
7.572667e-05
7.630614e-05
7.687398e-05
7.743037e-05
7.797551e-05
7.850958e-05
7.903276e-05
7.954523e-05
8.004716e-05
8.053873e-05
8.102010e-05
8.149144e-05
8.195291e-05
8.240467e-05
8.284688e-05
8.327969e-05
8.370325e-05
8.411771e-05
8.452323e-05
8.491993e-05
8.530796e-05
8.568745e-05
8.605855e-05
8.642138e-05
8.677607e-05
8.712275e-05
8.746154e-05
8.779256e-05
8.811594e-05
8.843179e-05
8.874022e-05
8.904134e-05
8.933527e-05
8.962210e-05
8.990195e-05
9.017491e-05
9.044108e-05
9.070056e-05
9.095345e-05
9.119983e-05
9.143980e-05
9.167344e-05
9.190084e-05
9.212208e-05
9.233724e-05
9.254640e-05
9.274963e-05
9.294701e-05
9.313861e-05
9.332450e-05
9.350475e-05
9.367941e-05
9.384857e-05
9.401226e-05
9.417056e-05
9.432352e-05
9.447119e-05
9.461362e-05
9.475088e-05
9.488299e-05
9.501002e-05
9.513199e-05
9.524896e-05
9.536097e-05
9.546805e-05
9.557023e-05
9.566755e-05
9.576005e-05
9.584775e-05
9.593068e-05
9.600886e-05
9.608231e-05
9.615107e-05
9.621515e-05
9.627456e-05
9.632932e-05
9.637945e-05
9.642495e-05
9.646583e-05
9.650211e-05
9.653379e-05
9.656086e-05
9.658334e-05
9.660123e-05
9.661451e-05
9.662318e-05
9.662725e-05
9.662669e-05
9.662150e-05
9.661167e-05
9.659718e-05
9.657802e-05
9.655416e-05
9.652559e-05
9.649228e-05
9.645421e-05
9.641136e-05
9.636369e-05
9.631117e-05
9.625377e-05
9.619146e-05
9.612419e-05
9.605194e-05
9.597465e-05
9.589230e-05
9.580482e-05
9.571217e-05
9.561431e-05
9.551119e-05
9.540274e-05
9.528892e-05
9.516966e-05
9.504491e-05
9.491460e-05
9.477867e-05
9.463706e-05
9.448969e-05
9.433649e-05
9.417740e-05
9.401233e-05
9.384120e-05
9.366395e-05
9.348048e-05
9.329071e-05
9.309455e-05
9.289193e-05
9.268273e-05
9.246688e-05
9.224427e-05
9.201481e-05
9.177839e-05
9.153491e-05
9.128427e-05
9.102636e-05
9.076107e-05
9.048828e-05
9.020788e-05
8.991975e-05
8.962377e-05
8.931982e-05
8.900778e-05
8.868750e-05
8.835887e-05
8.802175e-05
8.767601e-05
8.732150e-05
8.695808e-05
8.658562e-05
8.620396e-05
8.581296e-05
8.541246e-05
8.500231e-05
8.458235e-05
8.415243e-05
8.371237e-05
8.326203e-05
8.280122e-05
8.232977e-05
8.184753e-05
8.135430e-05
8.084991e-05
8.033418e-05
7.980693e-05
7.926797e-05
7.871711e-05
7.815416e-05
7.757893e-05
7.699122e-05
7.639084e-05
7.577758e-05
7.515124e-05
7.451162e-05
7.385851e-05
7.319170e-05
7.251099e-05
7.181615e-05
7.110699e-05
7.038329e-05
6.964482e-05
6.889138e-05
6.812275e-05
6.733871e-05
6.653906e-05
6.572356e-05
6.489201e-05
6.404420e-05
6.317992e-05
6.229895e-05
6.140109e-05
6.048614e-05
5.955390e-05
5.860418e-05
5.763679e-05
5.665156e-05
5.564831e-05
5.462689e-05
5.358714e-05
5.252891e-05
5.145210e-05
5.035658e-05
4.924226e-05
4.810907e-05
4.695695e-05
4.578588e-05
4.459583e-05
4.338685e-05
4.215896e-05
4.091227e-05
3.964688e-05
3.836295e-05
3.706068e-05
3.574030e-05
3.440208e-05
3.304637e-05
3.167352e-05
3.028396e-05
2.887816e-05
2.745663e-05
2.601994e-05
2.456869e-05
2.310353e-05
2.162517e-05
2.013433e-05
1.863177e-05
1.711831e-05
1.559476e-05
1.406197e-05
1.252082e-05
1.097220e-05
9.417015e-06
7.856181e-06
6.290627e-06
4.721289e-06
3.149109e-06
1.575039e-06
6.119848e-11
