# vtk DataFile Version 3.0
Monodomain FEM
ASCII
DATASET POLYDATA
POINTS 301 float
0.000000e+00 0.000000e+00 0.000000e+00
6.667000e-03 0.000000e+00 0.000000e+00
1.333300e-02 0.000000e+00 0.000000e+00
2.000000e-02 0.000000e+00 0.000000e+00
2.666700e-02 0.000000e+00 0.000000e+00
3.333300e-02 0.000000e+00 0.000000e+00
4.000000e-02 0.000000e+00 0.000000e+00
4.666700e-02 0.000000e+00 0.000000e+00
5.333300e-02 0.000000e+00 0.000000e+00
6.000000e-02 0.000000e+00 0.000000e+00
6.666700e-02 0.000000e+00 0.000000e+00
7.333300e-02 0.000000e+00 0.000000e+00
8.000000e-02 0.000000e+00 0.000000e+00
8.666700e-02 0.000000e+00 0.000000e+00
9.333300e-02 0.000000e+00 0.000000e+00
1.000000e-01 0.000000e+00 0.000000e+00
1.066670e-01 0.000000e+00 0.000000e+00
1.133330e-01 0.000000e+00 0.000000e+00
1.200000e-01 0.000000e+00 0.000000e+00
1.266670e-01 0.000000e+00 0.000000e+00
1.333330e-01 0.000000e+00 0.000000e+00
1.400000e-01 0.000000e+00 0.000000e+00
1.466670e-01 0.000000e+00 0.000000e+00
1.533330e-01 0.000000e+00 0.000000e+00
1.600000e-01 0.000000e+00 0.000000e+00
1.666670e-01 0.000000e+00 0.000000e+00
1.733330e-01 0.000000e+00 0.000000e+00
1.800000e-01 0.000000e+00 0.000000e+00
1.866670e-01 0.000000e+00 0.000000e+00
1.933330e-01 0.000000e+00 0.000000e+00
2.000000e-01 0.000000e+00 0.000000e+00
2.066670e-01 0.000000e+00 0.000000e+00
2.133330e-01 0.000000e+00 0.000000e+00
2.200000e-01 0.000000e+00 0.000000e+00
2.266670e-01 0.000000e+00 0.000000e+00
2.333330e-01 0.000000e+00 0.000000e+00
2.400000e-01 0.000000e+00 0.000000e+00
2.466670e-01 0.000000e+00 0.000000e+00
2.533330e-01 0.000000e+00 0.000000e+00
2.600000e-01 0.000000e+00 0.000000e+00
2.666670e-01 0.000000e+00 0.000000e+00
2.733330e-01 0.000000e+00 0.000000e+00
2.800000e-01 0.000000e+00 0.000000e+00
2.866670e-01 0.000000e+00 0.000000e+00
2.933330e-01 0.000000e+00 0.000000e+00
3.000000e-01 0.000000e+00 0.000000e+00
3.066670e-01 0.000000e+00 0.000000e+00
3.133330e-01 0.000000e+00 0.000000e+00
3.200000e-01 0.000000e+00 0.000000e+00
3.266670e-01 0.000000e+00 0.000000e+00
3.333330e-01 0.000000e+00 0.000000e+00
3.400000e-01 0.000000e+00 0.000000e+00
3.466670e-01 0.000000e+00 0.000000e+00
3.533330e-01 0.000000e+00 0.000000e+00
3.600000e-01 0.000000e+00 0.000000e+00
3.666670e-01 0.000000e+00 0.000000e+00
3.733330e-01 0.000000e+00 0.000000e+00
3.800000e-01 0.000000e+00 0.000000e+00
3.866670e-01 0.000000e+00 0.000000e+00
3.933330e-01 0.000000e+00 0.000000e+00
4.000000e-01 0.000000e+00 0.000000e+00
4.066670e-01 0.000000e+00 0.000000e+00
4.133330e-01 0.000000e+00 0.000000e+00
4.200000e-01 0.000000e+00 0.000000e+00
4.266670e-01 0.000000e+00 0.000000e+00
4.333330e-01 0.000000e+00 0.000000e+00
4.400000e-01 0.000000e+00 0.000000e+00
4.466670e-01 0.000000e+00 0.000000e+00
4.533330e-01 0.000000e+00 0.000000e+00
4.600000e-01 0.000000e+00 0.000000e+00
4.666670e-01 0.000000e+00 0.000000e+00
4.733330e-01 0.000000e+00 0.000000e+00
4.800000e-01 0.000000e+00 0.000000e+00
4.866670e-01 0.000000e+00 0.000000e+00
4.933330e-01 0.000000e+00 0.000000e+00
5.000000e-01 0.000000e+00 0.000000e+00
5.066670e-01 0.000000e+00 0.000000e+00
5.133330e-01 0.000000e+00 0.000000e+00
5.200000e-01 0.000000e+00 0.000000e+00
5.266670e-01 0.000000e+00 0.000000e+00
5.333330e-01 0.000000e+00 0.000000e+00
5.400000e-01 0.000000e+00 0.000000e+00
5.466670e-01 0.000000e+00 0.000000e+00
5.533330e-01 0.000000e+00 0.000000e+00
5.600000e-01 0.000000e+00 0.000000e+00
5.666670e-01 0.000000e+00 0.000000e+00
5.733330e-01 0.000000e+00 0.000000e+00
5.800000e-01 0.000000e+00 0.000000e+00
5.866670e-01 0.000000e+00 0.000000e+00
5.933330e-01 0.000000e+00 0.000000e+00
6.000000e-01 0.000000e+00 0.000000e+00
6.066670e-01 0.000000e+00 0.000000e+00
6.133330e-01 0.000000e+00 0.000000e+00
6.200000e-01 0.000000e+00 0.000000e+00
6.266670e-01 0.000000e+00 0.000000e+00
6.333330e-01 0.000000e+00 0.000000e+00
6.400000e-01 0.000000e+00 0.000000e+00
6.466670e-01 0.000000e+00 0.000000e+00
6.533330e-01 0.000000e+00 0.000000e+00
6.600000e-01 0.000000e+00 0.000000e+00
6.666670e-01 0.000000e+00 0.000000e+00
6.733330e-01 0.000000e+00 0.000000e+00
6.800000e-01 0.000000e+00 0.000000e+00
6.866670e-01 0.000000e+00 0.000000e+00
6.933330e-01 0.000000e+00 0.000000e+00
7.000000e-01 0.000000e+00 0.000000e+00
7.066670e-01 0.000000e+00 0.000000e+00
7.133330e-01 0.000000e+00 0.000000e+00
7.200000e-01 0.000000e+00 0.000000e+00
7.266670e-01 0.000000e+00 0.000000e+00
7.333330e-01 0.000000e+00 0.000000e+00
7.400000e-01 0.000000e+00 0.000000e+00
7.466670e-01 0.000000e+00 0.000000e+00
7.533330e-01 0.000000e+00 0.000000e+00
7.600000e-01 0.000000e+00 0.000000e+00
7.666670e-01 0.000000e+00 0.000000e+00
7.733330e-01 0.000000e+00 0.000000e+00
7.800000e-01 0.000000e+00 0.000000e+00
7.866670e-01 0.000000e+00 0.000000e+00
7.933330e-01 0.000000e+00 0.000000e+00
8.000000e-01 0.000000e+00 0.000000e+00
8.066670e-01 0.000000e+00 0.000000e+00
8.133330e-01 0.000000e+00 0.000000e+00
8.200000e-01 0.000000e+00 0.000000e+00
8.266670e-01 0.000000e+00 0.000000e+00
8.333330e-01 0.000000e+00 0.000000e+00
8.400000e-01 0.000000e+00 0.000000e+00
8.466670e-01 0.000000e+00 0.000000e+00
8.533330e-01 0.000000e+00 0.000000e+00
8.600000e-01 0.000000e+00 0.000000e+00
8.666670e-01 0.000000e+00 0.000000e+00
8.733330e-01 0.000000e+00 0.000000e+00
8.800000e-01 0.000000e+00 0.000000e+00
8.866670e-01 0.000000e+00 0.000000e+00
8.933330e-01 0.000000e+00 0.000000e+00
9.000000e-01 0.000000e+00 0.000000e+00
9.066670e-01 0.000000e+00 0.000000e+00
9.133330e-01 0.000000e+00 0.000000e+00
9.200000e-01 0.000000e+00 0.000000e+00
9.266670e-01 0.000000e+00 0.000000e+00
9.333330e-01 0.000000e+00 0.000000e+00
9.400000e-01 0.000000e+00 0.000000e+00
9.466670e-01 0.000000e+00 0.000000e+00
9.533330e-01 0.000000e+00 0.000000e+00
9.600000e-01 0.000000e+00 0.000000e+00
9.666670e-01 0.000000e+00 0.000000e+00
9.733330e-01 0.000000e+00 0.000000e+00
9.800000e-01 0.000000e+00 0.000000e+00
9.866670e-01 0.000000e+00 0.000000e+00
9.933330e-01 0.000000e+00 0.000000e+00
1.000000e+00 0.000000e+00 0.000000e+00
1.006667e+00 0.000000e+00 0.000000e+00
1.013333e+00 0.000000e+00 0.000000e+00
1.020000e+00 0.000000e+00 0.000000e+00
1.026667e+00 0.000000e+00 0.000000e+00
1.033333e+00 0.000000e+00 0.000000e+00
1.040000e+00 0.000000e+00 0.000000e+00
1.046667e+00 0.000000e+00 0.000000e+00
1.053333e+00 0.000000e+00 0.000000e+00
1.060000e+00 0.000000e+00 0.000000e+00
1.066667e+00 0.000000e+00 0.000000e+00
1.073333e+00 0.000000e+00 0.000000e+00
1.080000e+00 0.000000e+00 0.000000e+00
1.086667e+00 0.000000e+00 0.000000e+00
1.093333e+00 0.000000e+00 0.000000e+00
1.100000e+00 0.000000e+00 0.000000e+00
1.106667e+00 0.000000e+00 0.000000e+00
1.113333e+00 0.000000e+00 0.000000e+00
1.120000e+00 0.000000e+00 0.000000e+00
1.126667e+00 0.000000e+00 0.000000e+00
1.133333e+00 0.000000e+00 0.000000e+00
1.140000e+00 0.000000e+00 0.000000e+00
1.146667e+00 0.000000e+00 0.000000e+00
1.153333e+00 0.000000e+00 0.000000e+00
1.160000e+00 0.000000e+00 0.000000e+00
1.166667e+00 0.000000e+00 0.000000e+00
1.173333e+00 0.000000e+00 0.000000e+00
1.180000e+00 0.000000e+00 0.000000e+00
1.186667e+00 0.000000e+00 0.000000e+00
1.193333e+00 0.000000e+00 0.000000e+00
1.200000e+00 0.000000e+00 0.000000e+00
1.206667e+00 0.000000e+00 0.000000e+00
1.213333e+00 0.000000e+00 0.000000e+00
1.220000e+00 0.000000e+00 0.000000e+00
1.226667e+00 0.000000e+00 0.000000e+00
1.233333e+00 0.000000e+00 0.000000e+00
1.240000e+00 0.000000e+00 0.000000e+00
1.246667e+00 0.000000e+00 0.000000e+00
1.253333e+00 0.000000e+00 0.000000e+00
1.260000e+00 0.000000e+00 0.000000e+00
1.266667e+00 0.000000e+00 0.000000e+00
1.273333e+00 0.000000e+00 0.000000e+00
1.280000e+00 0.000000e+00 0.000000e+00
1.286667e+00 0.000000e+00 0.000000e+00
1.293333e+00 0.000000e+00 0.000000e+00
1.300000e+00 0.000000e+00 0.000000e+00
1.306667e+00 0.000000e+00 0.000000e+00
1.313333e+00 0.000000e+00 0.000000e+00
1.320000e+00 0.000000e+00 0.000000e+00
1.326667e+00 0.000000e+00 0.000000e+00
1.333333e+00 0.000000e+00 0.000000e+00
1.340000e+00 0.000000e+00 0.000000e+00
1.346667e+00 0.000000e+00 0.000000e+00
1.353333e+00 0.000000e+00 0.000000e+00
1.360000e+00 0.000000e+00 0.000000e+00
1.366667e+00 0.000000e+00 0.000000e+00
1.373333e+00 0.000000e+00 0.000000e+00
1.380000e+00 0.000000e+00 0.000000e+00
1.386667e+00 0.000000e+00 0.000000e+00
1.393333e+00 0.000000e+00 0.000000e+00
1.400000e+00 0.000000e+00 0.000000e+00
1.406667e+00 0.000000e+00 0.000000e+00
1.413333e+00 0.000000e+00 0.000000e+00
1.420000e+00 0.000000e+00 0.000000e+00
1.426667e+00 0.000000e+00 0.000000e+00
1.433333e+00 0.000000e+00 0.000000e+00
1.440000e+00 0.000000e+00 0.000000e+00
1.446667e+00 0.000000e+00 0.000000e+00
1.453333e+00 0.000000e+00 0.000000e+00
1.460000e+00 0.000000e+00 0.000000e+00
1.466667e+00 0.000000e+00 0.000000e+00
1.473333e+00 0.000000e+00 0.000000e+00
1.480000e+00 0.000000e+00 0.000000e+00
1.486667e+00 0.000000e+00 0.000000e+00
1.493333e+00 0.000000e+00 0.000000e+00
1.500000e+00 0.000000e+00 0.000000e+00
1.506667e+00 0.000000e+00 0.000000e+00
1.513333e+00 0.000000e+00 0.000000e+00
1.520000e+00 0.000000e+00 0.000000e+00
1.526667e+00 0.000000e+00 0.000000e+00
1.533333e+00 0.000000e+00 0.000000e+00
1.540000e+00 0.000000e+00 0.000000e+00
1.546667e+00 0.000000e+00 0.000000e+00
1.553333e+00 0.000000e+00 0.000000e+00
1.560000e+00 0.000000e+00 0.000000e+00
1.566667e+00 0.000000e+00 0.000000e+00
1.573333e+00 0.000000e+00 0.000000e+00
1.580000e+00 0.000000e+00 0.000000e+00
1.586667e+00 0.000000e+00 0.000000e+00
1.593333e+00 0.000000e+00 0.000000e+00
1.600000e+00 0.000000e+00 0.000000e+00
1.606667e+00 0.000000e+00 0.000000e+00
1.613333e+00 0.000000e+00 0.000000e+00
1.620000e+00 0.000000e+00 0.000000e+00
1.626667e+00 0.000000e+00 0.000000e+00
1.633333e+00 0.000000e+00 0.000000e+00
1.640000e+00 0.000000e+00 0.000000e+00
1.646667e+00 0.000000e+00 0.000000e+00
1.653333e+00 0.000000e+00 0.000000e+00
1.660000e+00 0.000000e+00 0.000000e+00
1.666667e+00 0.000000e+00 0.000000e+00
1.673333e+00 0.000000e+00 0.000000e+00
1.680000e+00 0.000000e+00 0.000000e+00
1.686667e+00 0.000000e+00 0.000000e+00
1.693333e+00 0.000000e+00 0.000000e+00
1.700000e+00 0.000000e+00 0.000000e+00
1.706667e+00 0.000000e+00 0.000000e+00
1.713333e+00 0.000000e+00 0.000000e+00
1.720000e+00 0.000000e+00 0.000000e+00
1.726667e+00 0.000000e+00 0.000000e+00
1.733333e+00 0.000000e+00 0.000000e+00
1.740000e+00 0.000000e+00 0.000000e+00
1.746667e+00 0.000000e+00 0.000000e+00
1.753333e+00 0.000000e+00 0.000000e+00
1.760000e+00 0.000000e+00 0.000000e+00
1.766667e+00 0.000000e+00 0.000000e+00
1.773333e+00 0.000000e+00 0.000000e+00
1.780000e+00 0.000000e+00 0.000000e+00
1.786667e+00 0.000000e+00 0.000000e+00
1.793333e+00 0.000000e+00 0.000000e+00
1.800000e+00 0.000000e+00 0.000000e+00
1.806667e+00 0.000000e+00 0.000000e+00
1.813333e+00 0.000000e+00 0.000000e+00
1.820000e+00 0.000000e+00 0.000000e+00
1.826667e+00 0.000000e+00 0.000000e+00
1.833333e+00 0.000000e+00 0.000000e+00
1.840000e+00 0.000000e+00 0.000000e+00
1.846667e+00 0.000000e+00 0.000000e+00
1.853333e+00 0.000000e+00 0.000000e+00
1.860000e+00 0.000000e+00 0.000000e+00
1.866667e+00 0.000000e+00 0.000000e+00
1.873333e+00 0.000000e+00 0.000000e+00
1.880000e+00 0.000000e+00 0.000000e+00
1.886667e+00 0.000000e+00 0.000000e+00
1.893333e+00 0.000000e+00 0.000000e+00
1.900000e+00 0.000000e+00 0.000000e+00
1.906667e+00 0.000000e+00 0.000000e+00
1.913333e+00 0.000000e+00 0.000000e+00
1.920000e+00 0.000000e+00 0.000000e+00
1.926667e+00 0.000000e+00 0.000000e+00
1.933333e+00 0.000000e+00 0.000000e+00
1.940000e+00 0.000000e+00 0.000000e+00
1.946667e+00 0.000000e+00 0.000000e+00
1.953333e+00 0.000000e+00 0.000000e+00
1.960000e+00 0.000000e+00 0.000000e+00
1.966667e+00 0.000000e+00 0.000000e+00
1.973333e+00 0.000000e+00 0.000000e+00
1.980000e+00 0.000000e+00 0.000000e+00
1.986667e+00 0.000000e+00 0.000000e+00
1.993333e+00 0.000000e+00 0.000000e+00
2.000000e+00 0.000000e+00 0.000000e+00
LINES 301 900
2 0 1
2 1 2
2 2 3
2 3 4
2 4 5
2 5 6
2 6 7
2 7 8
2 8 9
2 9 10
2 10 11
2 11 12
2 12 13
2 13 14
2 14 15
2 15 16
2 16 17
2 17 18
2 18 19
2 19 20
2 20 21
2 21 22
2 22 23
2 23 24
2 24 25
2 25 26
2 26 27
2 27 28
2 28 29
2 29 30
2 30 31
2 31 32
2 32 33
2 33 34
2 34 35
2 35 36
2 36 37
2 37 38
2 38 39
2 39 40
2 40 41
2 41 42
2 42 43
2 43 44
2 44 45
2 45 46
2 46 47
2 47 48
2 48 49
2 49 50
2 50 51
2 51 52
2 52 53
2 53 54
2 54 55
2 55 56
2 56 57
2 57 58
2 58 59
2 59 60
2 60 61
2 61 62
2 62 63
2 63 64
2 64 65
2 65 66
2 66 67
2 67 68
2 68 69
2 69 70
2 70 71
2 71 72
2 72 73
2 73 74
2 74 75
2 75 76
2 76 77
2 77 78
2 78 79
2 79 80
2 80 81
2 81 82
2 82 83
2 83 84
2 84 85
2 85 86
2 86 87
2 87 88
2 88 89
2 89 90
2 90 91
2 91 92
2 92 93
2 93 94
2 94 95
2 95 96
2 96 97
2 97 98
2 98 99
2 99 100
2 100 101
2 101 102
2 102 103
2 103 104
2 104 105
2 105 106
2 106 107
2 107 108
2 108 109
2 109 110
2 110 111
2 111 112
2 112 113
2 113 114
2 114 115
2 115 116
2 116 117
2 117 118
2 118 119
2 119 120
2 120 121
2 121 122
2 122 123
2 123 124
2 124 125
2 125 126
2 126 127
2 127 128
2 128 129
2 129 130
2 130 131
2 131 132
2 132 133
2 133 134
2 134 135
2 135 136
2 136 137
2 137 138
2 138 139
2 139 140
2 140 141
2 141 142
2 142 143
2 143 144
2 144 145
2 145 146
2 146 147
2 147 148
2 148 149
2 149 150
2 150 151
2 151 152
2 152 153
2 153 154
2 154 155
2 155 156
2 156 157
2 157 158
2 158 159
2 159 160
2 160 161
2 161 162
2 162 163
2 163 164
2 164 165
2 165 166
2 166 167
2 167 168
2 168 169
2 169 170
2 170 171
2 171 172
2 172 173
2 173 174
2 174 175
2 175 176
2 176 177
2 177 178
2 178 179
2 179 180
2 180 181
2 181 182
2 182 183
2 183 184
2 184 185
2 185 186
2 186 187
2 187 188
2 188 189
2 189 190
2 190 191
2 191 192
2 192 193
2 193 194
2 194 195
2 195 196
2 196 197
2 197 198
2 198 199
2 199 200
2 200 201
2 201 202
2 202 203
2 203 204
2 204 205
2 205 206
2 206 207
2 207 208
2 208 209
2 209 210
2 210 211
2 211 212
2 212 213
2 213 214
2 214 215
2 215 216
2 216 217
2 217 218
2 218 219
2 219 220
2 220 221
2 221 222
2 222 223
2 223 224
2 224 225
2 225 226
2 226 227
2 227 228
2 228 229
2 229 230
2 230 231
2 231 232
2 232 233
2 233 234
2 234 235
2 235 236
2 236 237
2 237 238
2 238 239
2 239 240
2 240 241
2 241 242
2 242 243
2 243 244
2 244 245
2 245 246
2 246 247
2 247 248
2 248 249
2 249 250
2 250 251
2 251 252
2 252 253
2 253 254
2 254 255
2 255 256
2 256 257
2 257 258
2 258 259
2 259 260
2 260 261
2 261 262
2 262 263
2 263 264
2 264 265
2 265 266
2 266 267
2 267 268
2 268 269
2 269 270
2 270 271
2 271 272
2 272 273
2 273 274
2 274 275
2 275 276
2 276 277
2 277 278
2 278 279
2 279 280
2 280 281
2 281 282
2 282 283
2 283 284
2 284 285
2 285 286
2 286 287
2 287 288
2 288 289
2 289 290
2 290 291
2 291 292
2 292 293
2 293 294
2 294 295
2 295 296
2 296 297
2 297 298
2 298 299
2 299 300
POINT_DATA 301
SCALARS vm float 1
LOOKUP_TABLE default
4.237976e-11
2.192621e-06
4.375487e-06
6.538881e-06
8.673114e-06
1.076857e-05
1.271871e-05
1.452802e-05
1.630321e-05
1.804496e-05
1.975370e-05
2.142983e-05
2.307381e-05
2.468608e-05
2.626714e-05
2.781747e-05
2.933757e-05
3.082794e-05
3.228909e-05
3.372151e-05
3.512572e-05
3.650219e-05
3.785143e-05
3.917391e-05
4.047010e-05
4.174047e-05
4.298549e-05
4.420559e-05
4.540121e-05
4.657280e-05
4.772077e-05
4.884553e-05
4.994750e-05
5.102708e-05
5.208467e-05
5.312063e-05
5.413537e-05
5.512925e-05
5.610264e-05
5.705589e-05
5.798938e-05
5.890345e-05
5.979844e-05
6.067469e-05
6.153254e-05
6.237233e-05
6.319437e-05
6.399898e-05
6.478649e-05
6.555719e-05
6.631141e-05
6.704943e-05
6.777156e-05
6.847809e-05
6.916931e-05
6.984549e-05
7.050693e-05
7.115388e-05
7.178663e-05
7.240544e-05
7.301056e-05
7.360227e-05
7.418080e-05
7.474641e-05
7.529935e-05
7.583985e-05
7.636816e-05
7.688449e-05
7.738909e-05
7.788218e-05
7.836398e-05
7.883470e-05
7.929457e-05
7.974378e-05
8.018255e-05
8.061107e-05
8.102955e-05
8.143818e-05
8.183715e-05
8.222666e-05
8.260688e-05
8.297799e-05
8.334017e-05
8.369361e-05
8.403846e-05
8.437489e-05
8.470308e-05
8.502317e-05
8.533533e-05
8.563971e-05
8.593647e-05
8.622575e-05
8.650769e-05
8.678244e-05
8.705014e-05
8.731091e-05
8.756491e-05
8.781224e-05
8.805305e-05
8.828745e-05
8.851557e-05
8.873753e-05
8.895343e-05
8.916339e-05
8.936752e-05
8.956593e-05
8.975872e-05
8.994600e-05
9.012785e-05
9.030438e-05
9.047569e-05
9.064185e-05
9.080295e-05
9.095910e-05
9.111035e-05
9.125680e-05
9.139852e-05
9.153559e-05
9.166808e-05
9.179606e-05
9.191959e-05
9.203874e-05
9.215357e-05
9.226415e-05
9.237052e-05
9.247274e-05
9.257087e-05
9.266496e-05
9.275504e-05
9.284117e-05
9.292339e-05
9.300174e-05
9.307626e-05
9.314697e-05
9.321392e-05
9.327714e-05
9.333664e-05
9.339247e-05
9.344463e-05
9.349316e-05
9.353807e-05
9.357937e-05
9.361709e-05
9.365122e-05
9.368179e-05
9.370879e-05
9.373224e-05
9.375213e-05
9.376846e-05
9.378124e-05
9.379045e-05
9.379609e-05
9.379815e-05
9.379661e-05
9.379147e-05
9.378270e-05
9.377029e-05
9.375422e-05
9.373445e-05
9.371097e-05
9.368375e-05
9.365275e-05
9.361795e-05
9.357930e-05
9.353677e-05
9.349031e-05
9.343989e-05
9.338545e-05
9.332696e-05
9.326436e-05
9.319759e-05
9.312661e-05
9.305135e-05
9.297175e-05
9.288775e-05
9.279929e-05
9.270629e-05
9.260869e-05
9.250642e-05
9.239939e-05
9.228753e-05
9.217076e-05
9.204899e-05
9.192215e-05
9.179013e-05
9.165285e-05
9.151021e-05
9.136213e-05
9.120848e-05
9.104919e-05
9.088413e-05
9.071321e-05
9.053630e-05
9.035331e-05
9.016410e-05
8.996857e-05
8.976659e-05
8.955803e-05
8.934276e-05
8.912066e-05
8.889160e-05
8.865542e-05
8.841200e-05
8.816119e-05
8.790285e-05
8.763682e-05
8.736296e-05
8.708110e-05
8.679110e-05
8.649278e-05
8.618598e-05
8.587054e-05
8.554629e-05
8.521304e-05
8.487063e-05
8.451887e-05
8.415757e-05
8.378655e-05
8.340563e-05
8.301459e-05
8.261326e-05
8.220142e-05
8.177888e-05
8.134542e-05
8.090084e-05
8.044492e-05
7.997745e-05
7.949820e-05
7.900695e-05
7.850349e-05
7.798757e-05
7.745896e-05
7.691744e-05
7.636275e-05
7.579467e-05
7.521294e-05
7.461732e-05
7.400757e-05
7.338342e-05
7.274463e-05
7.209094e-05
7.142210e-05
7.073784e-05
7.003791e-05
6.932203e-05
6.858996e-05
6.784143e-05
6.707617e-05
6.629393e-05
6.549443e-05
6.467743e-05
6.384265e-05
6.298985e-05
6.211878e-05
6.122917e-05
6.032079e-05
5.939341e-05
5.844678e-05
5.748068e-05
5.649490e-05
5.548923e-05
5.446347e-05
5.341746e-05
5.235102e-05
5.126401e-05
5.015629e-05
4.902776e-05
4.787834e-05
4.670796e-05
4.551659e-05
4.430424e-05
4.307095e-05
4.181678e-05
4.054184e-05
3.924629e-05
3.793033e-05
3.659420e-05
3.523821e-05
3.386269e-05
3.246806e-05
3.105478e-05
2.962335e-05
2.817434e-05
2.670838e-05
2.522614e-05
2.372834e-05
2.221576e-05
2.068920e-05
1.914954e-05
1.759765e-05
1.603446e-05
1.446092e-05
1.287802e-05
1.128674e-05
9.688101e-06
8.083134e-06
6.472876e-06
4.858377e-06
3.240692e-06
1.620888e-06
6.251205e-11
